Siesta Version  : 4.1.5
Architecture    : x86_64
Compiler version: GNU Fortran (GCC) 13.2.1 20240316 (Red Hat 13.2.1-7)
Compiler flags  : gfortran -O2 -fPIC -ftree-vectorize -fallow-argument-mismatch
PP flags        : -DFC_HAVE_ABORT -DCDF -DNCDF -DNCDF_4 -DSIESTA__DIAG_2STAGE -DSIESTA__MRRR
Libraries       : libsiestaLAPACK.a libsiestaBLAS.a libncdf.a libfdict.a -lnetcdff -lnetcdf -lhhdf5_hl -lhdf5 -lz
SERIAL version
NetCDF support
NetCDF-4 support

* Running in serial mode
>> Start of run:  28-AUG-2024  10:20:01

                           ***********************       
                           *  WELCOME TO SIESTA  *       
                           ***********************       

reinit: Reading from siesta.fdf

reinit: -----------------------------------------------------------------------
reinit: System Name: 
reinit: -----------------------------------------------------------------------
reinit: System Label: siesta
reinit: -----------------------------------------------------------------------

initatom: Reading input for the pseudopotentials and atomic orbitals ----------
Species number:   1 Atomic number:   31 Label: Ga
Species number:   2 Atomic number:    7 Label: N

Ground state valence configuration:   4s02  4p01
Reading pseudopotential information in formatted form from Ga.psf

Valence configuration for pseudopotential generation:
4s( 2.00) rc: 2.18
4p( 1.00) rc: 2.47
4d( 0.00) rc: 2.56
4f( 0.00) rc: 2.56
Ground state valence configuration:   2s02  2p03
Reading pseudopotential information in formatted form from N.psf

Valence configuration for pseudopotential generation:
2s( 2.00) rc: 1.48
2p( 3.00) rc: 1.48
3d( 0.00) rc: 1.48
4f( 0.00) rc: 1.48
For Ga, standard SIESTA heuristics set lmxkb to 3
 (one more than the basis l, including polarization orbitals).
Use PS.lmax or PS.KBprojectors blocks to override.
For N, standard SIESTA heuristics set lmxkb to 3
 (one more than the basis l, including polarization orbitals).
Use PS.lmax or PS.KBprojectors blocks to override.

<basis_specs>
===============================================================================
Ga                   Z=  31    Mass=  69.720        Charge= 0.17977+309
Lmxo=1 Lmxkb= 3    BasisType=split      Semic=F
L=0  Nsemic=0  Cnfigmx=4
          i=1  nzeta=2  polorb=0  (4s)
            splnorm:   0.15000    
               vcte:    0.0000    
               rinn:    0.0000    
               qcoe:    0.0000    
               qyuk:    0.0000    
               qwid:   0.10000E-01
                rcs:    0.0000      0.0000    
            lambdas:    1.0000      1.0000    
L=1  Nsemic=0  Cnfigmx=4
          i=1  nzeta=2  polorb=1  (4p)
            splnorm:   0.15000    
               vcte:    0.0000    
               rinn:    0.0000    
               qcoe:    0.0000    
               qyuk:    0.0000    
               qwid:   0.10000E-01
                rcs:    0.0000      0.0000    
            lambdas:    1.0000      1.0000    
-------------------------------------------------------------------------------
L=0  Nkbl=1  erefs: 0.17977+309
L=1  Nkbl=1  erefs: 0.17977+309
L=2  Nkbl=1  erefs: 0.17977+309
L=3  Nkbl=1  erefs: 0.17977+309
===============================================================================
</basis_specs>

atom: Called for Ga                    (Z =  31)

read_vps: Pseudopotential generation method:
read_vps: ATM3      Troullier-Martins                       
Valence charge for ps generation:    3.00000

xc_check: Exchange-correlation functional:
xc_check: Ceperley-Alder
V l=0 = -2*Zval/r beyond r=  5.0962
V l=1 = -2*Zval/r beyond r=  5.0962
V l=2 = -2*Zval/r beyond r=  5.0962
V l=3 = -2*Zval/r beyond r=  5.0962
All V_l potentials equal beyond r=  2.5307
This should be close to max(r_c) in ps generation
All pots = -2*Zval/r beyond r=  5.0962
Using large-core scheme for Vlocal

atom: Estimated core radius    5.09621

atom: Including non-local core corrections could be a good idea
atom: Maximum radius for 4*pi*r*r*local-pseudopot. charge    5.49313
atom: Maximum radius for r*vlocal+2*Zval:    5.16031
GHOST: No ghost state for L =  0
GHOST: No ghost state for L =  1
GHOST: No ghost state for L =  2
GHOST: No ghost state for L =  3

KBgen: Kleinman-Bylander projectors: 
   l= 0   rc=  2.627367   el= -0.656313   Ekb=  4.921231   kbcos=  0.187501
   l= 1   rc=  2.627367   el= -0.203697   Ekb=  1.582346   kbcos=  0.166595
   l= 2   rc=  2.627367   el=  0.002406   Ekb= 21.668670   kbcos=  0.009633
   l= 3   rc=  2.627367   el=  0.003540   Ekb= -0.890396   kbcos= -0.014747

KBgen: Total number of Kleinman-Bylander projectors:   16
atom: -------------------------------------------------------------------------

atom: SANKEY-TYPE ORBITALS:
atom: Selected multiple-zeta basis: split     

SPLIT: Orbitals with angular momentum L= 0

SPLIT: Basis orbitals for state 4s

SPLIT: PAO cut-off radius determined from an
SPLIT: energy shift=  0.020000 Ry

   izeta = 1
                 lambda =    1.000000
                     rc =    5.290949
                 energy =   -0.635526
                kinetic =    0.500580
    potential(screened) =   -1.136106
       potential(ionic) =   -2.737742

   izeta = 2
                 rmatch =    4.787441
              splitnorm =    0.150000
                 energy =   -0.552515
                kinetic =    0.757693
    potential(screened) =   -1.310207
       potential(ionic) =   -2.973199

SPLIT: Orbitals with angular momentum L= 1

SPLIT: Basis orbitals for state 4p

SPLIT: PAO cut-off radius determined from an
SPLIT: energy shift=  0.020000 Ry

   izeta = 1
                 lambda =    1.000000
                     rc =    7.142062
                 energy =   -0.185506
                kinetic =    0.636587
    potential(screened) =   -0.822093
       potential(ionic) =   -2.232406

   izeta = 2
                 rmatch =    5.847412
              splitnorm =    0.150000
                 energy =   -0.118851
                kinetic =    0.909757
    potential(screened) =   -1.028608
       potential(ionic) =   -2.557302

POLgen: Perturbative polarization orbital with L=  2

POLgen: Polarization orbital for state 4p

   izeta = 1
                     rc =    7.142062
                 energy =    0.337184
                kinetic =    0.956677
    potential(screened) =   -0.619493
       potential(ionic) =   -1.912569
atom: Total number of Sankey-type orbitals: 13

atm_pop: Valence configuration (for local Pseudopot. screening):
 4s( 2.00)                                                            
 4p( 1.00)                                                            
Vna: chval, zval:    3.00000   3.00000

Vna:  Cut-off radius for the neutral-atom potential:   7.142062

atom: _________________________________________________________________________

<basis_specs>
===============================================================================
N                    Z=   7    Mass=  14.010        Charge= 0.17977+309
Lmxo=1 Lmxkb= 3    BasisType=split      Semic=F
L=0  Nsemic=0  Cnfigmx=2
          i=1  nzeta=2  polorb=0  (2s)
            splnorm:   0.15000    
               vcte:    0.0000    
               rinn:    0.0000    
               qcoe:    0.0000    
               qyuk:    0.0000    
               qwid:   0.10000E-01
                rcs:    0.0000      0.0000    
            lambdas:    1.0000      1.0000    
L=1  Nsemic=0  Cnfigmx=2
          i=1  nzeta=2  polorb=1  (2p)
            splnorm:   0.15000    
               vcte:    0.0000    
               rinn:    0.0000    
               qcoe:    0.0000    
               qyuk:    0.0000    
               qwid:   0.10000E-01
                rcs:    0.0000      0.0000    
            lambdas:    1.0000      1.0000    
-------------------------------------------------------------------------------
L=0  Nkbl=1  erefs: 0.17977+309
L=1  Nkbl=1  erefs: 0.17977+309
L=2  Nkbl=1  erefs: 0.17977+309
L=3  Nkbl=1  erefs: 0.17977+309
===============================================================================
</basis_specs>

atom: Called for N                     (Z =   7)

read_vps: Pseudopotential generation method:
read_vps: ATM 3.2.2 Troullier-Martins                       
Valence charge for ps generation:    5.00000

xc_check: Exchange-correlation functional:
xc_check: Ceperley-Alder
V l=0 = -2*Zval/r beyond r=  1.4068
V l=1 = -2*Zval/r beyond r=  1.4068
V l=2 = -2*Zval/r beyond r=  1.3893
V l=3 = -2*Zval/r beyond r=  1.3893
All V_l potentials equal beyond r=  1.4068
This should be close to max(r_c) in ps generation
All pots = -2*Zval/r beyond r=  1.4068

VLOCAL1: 99.0% of the norm of Vloc inside     21.932 Ry
VLOCAL1: 99.9% of the norm of Vloc inside     49.984 Ry
atom: Maximum radius for 4*pi*r*r*local-pseudopot. charge    1.69703
atom: Maximum radius for r*vlocal+2*Zval:    1.47898
GHOST: No ghost state for L =  0
GHOST: No ghost state for L =  1
GHOST: No ghost state for L =  2
GHOST: No ghost state for L =  3

KBgen: Kleinman-Bylander projectors: 
   l= 0   rc=  1.574385   el= -1.353367   Ekb=  5.539848   kbcos=  0.332879
   l= 1   rc=  1.554824   el= -0.531613   Ekb= -5.729513   kbcos= -0.415606
   l= 2   rc=  1.655124   el=  0.002346   Ekb= -1.356830   kbcos= -0.006912
   l= 3   rc=  1.697033   el=  0.003449   Ekb= -0.547865   kbcos= -0.000853

KBgen: Total number of Kleinman-Bylander projectors:   16
atom: -------------------------------------------------------------------------

atom: SANKEY-TYPE ORBITALS:
atom: Selected multiple-zeta basis: split     

SPLIT: Orbitals with angular momentum L= 0

SPLIT: Basis orbitals for state 2s

SPLIT: PAO cut-off radius determined from an
SPLIT: energy shift=  0.020000 Ry

   izeta = 1
                 lambda =    1.000000
                     rc =    3.683980
                 energy =   -1.334971
                kinetic =    1.209822
    potential(screened) =   -2.544793
       potential(ionic) =   -8.134324

   izeta = 2
                 rmatch =    2.905100
              splitnorm =    0.150000
                 energy =   -1.139426
                kinetic =    1.822914
    potential(screened) =   -2.962340
       potential(ionic) =   -8.956342

SPLIT: Orbitals with angular momentum L= 1

SPLIT: Basis orbitals for state 2p

SPLIT: PAO cut-off radius determined from an
SPLIT: energy shift=  0.020000 Ry

   izeta = 1
                 lambda =    1.000000
                     rc =    4.280232
                 energy =   -0.511405
                kinetic =    3.634326
    potential(screened) =   -4.145731
       potential(ionic) =   -9.591140

   izeta = 2
                 rmatch =    2.941647
              splitnorm =    0.150000
                 energy =   -0.291462
                kinetic =    5.417486
    potential(screened) =   -5.708948
       potential(ionic) =  -11.762635

POLgen: Perturbative polarization orbital with L=  2

POLgen: Polarization orbital for state 2p

   izeta = 1
                     rc =    4.280232
                 energy =    1.826540
                kinetic =    3.674659
    potential(screened) =   -1.848119
       potential(ionic) =   -6.346867
atom: Total number of Sankey-type orbitals: 13

atm_pop: Valence configuration (for local Pseudopot. screening):
 2s( 2.00)                                                            
 2p( 3.00)                                                            
Vna: chval, zval:    5.00000   5.00000

Vna:  Cut-off radius for the neutral-atom potential:   4.280232

atom: _________________________________________________________________________

prinput: Basis input ----------------------------------------------------------

PAO.BasisType split     

%block ChemicalSpeciesLabel
    1   31 Ga                      # Species index, atomic number, species label
    2    7 N                       # Species index, atomic number, species label
%endblock ChemicalSpeciesLabel

%block PAO.Basis                 # Define Basis set
Ga                    2                    # Species label, number of l-shells
 n=4   0   2                         # n, l, Nzeta 
   5.291      4.787   
   1.000      1.000   
 n=4   1   2 P   1                   # n, l, Nzeta, Polarization, NzetaPol
   7.142      5.847   
   1.000      1.000   
N                     2                    # Species label, number of l-shells
 n=2   0   2                         # n, l, Nzeta 
   3.684      2.905   
   1.000      1.000   
 n=2   1   2 P   1                   # n, l, Nzeta, Polarization, NzetaPol
   4.280      2.942   
   1.000      1.000   
%endblock PAO.Basis

prinput: ----------------------------------------------------------------------

Dumping basis to NetCDF file Ga.ion.nc
Dumping basis to NetCDF file N.ion.nc
coor:   Atomic-coordinates input format  =     Cartesian coordinates
coor:                                          (in Angstroms)

siesta: Atomic coordinates (Bohr) and species
siesta:      0.00000   0.00000   0.00000  1        1
siesta:      0.00000   3.48585   1.23244  2        2
siesta:      0.00000   3.48585   4.92974  1        3
siesta:      0.00000   0.00000   6.16218  2        4

siesta: System type = bulk      

initatomlists: Number of atoms, orbitals, and projectors:      4    52    64

siesta: ******************** Simulation parameters ****************************
siesta:
siesta: The following are some of the parameters of the simulation.
siesta: A complete list of the parameters used, including default values,
siesta: can be found in file out.fdf
siesta:
redata: Spin configuration                          = none
redata: Number of spin components                   = 1
redata: Time-Reversal Symmetry                      = T
redata: Spin spiral                                 = F
redata: Long output                                 =   F
redata: Number of Atomic Species                    =        2
redata: Charge density info will appear in .RHO file
redata: Write Mulliken Pop.                         = NO
redata: Matel table size (NRTAB)                    =     1024
redata: Mesh Cutoff                                 =   300.0000 Ry
redata: Net charge of the system                    =     0.0000 |e|
redata: Min. number of SCF Iter                     =        0
redata: Max. number of SCF Iter                     =     1000
redata: SCF convergence failure will abort job
redata: SCF mix quantity                            = Hamiltonian
redata: Mix DM or H after convergence               =   F
redata: Recompute H after scf cycle                 =   F
redata: Mix DM in first SCF step                    =   T
redata: Write Pulay info on disk                    =   F
redata: New DM Occupancy tolerance                  = 0.000000000001
redata: No kicks to SCF
redata: DM Mixing Weight for Kicks                  =     0.5000
redata: Require Harris convergence for SCF          =   F
redata: Harris energy tolerance for SCF             =     0.000100 eV
redata: Require DM convergence for SCF              =   T
redata: DM tolerance for SCF                        =     0.000100
redata: Require EDM convergence for SCF             =   F
redata: EDM tolerance for SCF                       =     0.001000 eV
redata: Require H convergence for SCF               =   T
redata: Hamiltonian tolerance for SCF               =     0.001000 eV
redata: Require (free) Energy convergence for SCF   =   F
redata: (free) Energy tolerance for SCF             =     0.000100 eV
redata: Using Saved Data (generic)                  =   F
redata: Use continuation files for DM               =   F
redata: Neglect nonoverlap interactions             =   F
redata: Method of Calculation                       = Diagonalization
redata: Electronic Temperature                      =   299.9978 K
redata: Fix the spin of the system                  =   F
redata: Dynamics option                             = Single-point calculation
mix.SCF: Pulay mixing                            = Pulay
mix.SCF:    Variant                              = stable
mix.SCF:    History steps                        = 2
mix.SCF:    Linear mixing weight                 =     0.250000
mix.SCF:    Mixing weight                        =     0.250000
mix.SCF:    SVD condition                        = 0.1000E-07
redata: Save all siesta data in one NC              =   F
redata: ***********************************************************************

%block SCF.Mixers
  Pulay
%endblock SCF.Mixers

%block SCF.Mixer.Pulay
  # Mixing method
  method pulay
  variant stable

  # Mixing options
  weight 0.2500
  weight.linear 0.2500
  history 2
%endblock SCF.Mixer.Pulay

DM_history_depth set to one: no extrapolation allowed by default for geometry relaxation
Size of DM history Fstack: 1
Total number of electrons:    16.000000
Total ionic charge:    16.000000
 Kpoints in:         1800 . Kpoints trimmed:         1688

siesta: k-grid: Number of k-points =  1688
siesta: k-grid: Cutoff (effective) =    23.963 Ang
siesta: k-grid: Supercell and displacements
siesta: k-grid:   15   0   0      0.000
siesta: k-grid:    0  15   0      0.000
siesta: k-grid:    0   0  15      0.000

diag: Algorithm                                     = D&C
diag: Used triangular part                          = Lower
diag: Absolute tolerance                            =  0.100E-15
diag: Orthogonalization factor                      =  0.100E-05
diag: Memory factor                                 =  1.0000
Using LatticeConstant from fdf file for BandLinesScale:    1.889727 Bohr
Beware any cell changes by the end of the run
Using LatticeConstant from fdf file for BandLinesScale:    1.889727 Bohr
Beware any cell changes by the end of the run

superc: Internal auxiliary supercell:     5 x     7 x     3  =     105
superc: Number of atoms, orbitals, and projectors:    420   5460   6720


ts: **************************************************************
ts: Save H and S matrices                           =    F
ts: Save DM and EDM matrices                        =    F
ts: Only save the overlap matrix S                  =    F
ts: **************************************************************

************************ Begin: TS CHECKS AND WARNINGS ************************
************************ End: TS CHECKS AND WARNINGS **************************


                     ====================================
                        Single-point calculation
                     ====================================

superc: Internal auxiliary supercell:     5 x     7 x     3  =     105
superc: Number of atoms, orbitals, and projectors:    420   5460   6720

outcell: Unit cell vectors (Ang):
        3.195000    0.000000    0.000000
       -1.597500    2.766951    0.000000
        0.000000    0.000000    5.217413

outcell: Cell vector modules (Ang)   :    3.195000    3.195000    5.217413
outcell: Cell angles (23,13,12) (deg):     90.0000     90.0000    120.0000
outcell: Cell volume (Ang**3)        :     46.1241
<dSpData1D:S at geom step 0
  <sparsity:sparsity for geom step 0
    nrows_g=52 nrows=52 sparsity=22.1331 nnzs=59848, refcount: 7>
  <dData1D:(new from dSpData1D) n=59848, refcount: 1>
refcount: 1>
new_DM -- step:     1
Initializing Density Matrix...
DM filled with atomic data:
<dSpData2D:DM initialized from atoms
  <sparsity:sparsity for geom step 0
    nrows_g=52 nrows=52 sparsity=22.1331 nnzs=59848, refcount: 8>
  <dData2D:DM n=59848 m=1, refcount: 1>
refcount: 1>
No. of atoms with KB's overlaping orbs in proc 0. Max # of overlaps:      58     278
New grid distribution:   1
           1       1:   15    1:   15    1:   30

InitMesh: MESH =    30 x    30 x    60 =       54000
InitMesh: (bp) =    15 x    15 x    30 =        6750
InitMesh: Mesh cutoff (required, used) =   300.000   324.894 Ry
ExtMesh (bp) on 0 =    99 x    99 x   118 =     1156518
PhiOnMesh: Number of (b)points on node 0 =                 6750
PhiOnMesh: nlist on node 0 =               885588

stepf: Fermi-Dirac step function

siesta: Program's energy decomposition (eV):
siesta: Ebs     =      -150.935328
siesta: Eions   =      1038.575291
siesta: Ena     =       180.562379
siesta: Ekin    =       470.211672
siesta: Enl     =       -66.352131
siesta: Eso     =         0.000000
siesta: Edftu   =         0.000000
siesta: DEna    =       -19.362372
siesta: DUscf   =         3.702515
siesta: DUext   =         0.000000
siesta: Exc     =      -188.496641
siesta: eta*DQ  =         0.000000
siesta: Emadel  =         0.000000
siesta: Emeta   =         0.000000
siesta: Emolmec =         0.000000
siesta: Ekinion =         0.000000
siesta: Eharris =      -655.728142
siesta: Etot    =      -658.309870
siesta: FreeEng =      -658.309870

        iscf     Eharris(eV)        E_KS(eV)     FreeEng(eV)     dDmax    Ef(eV) dHmax(eV)
   scf:    1     -655.728142     -658.309870     -658.309870  1.796240 -5.401051  4.978700
timer: Routine,Calls,Time,% = IterSCF        1       9.684  56.06
   scf:    2     -660.967862     -659.950300     -659.950300  0.073426 -4.248794  1.356043
   scf:    3     -660.120004     -660.079566     -660.079566  0.029975 -4.024831  0.066192
   scf:    4     -660.080189     -660.079881     -660.079881  0.001947 -4.013448  0.048959
   scf:    5     -660.080535     -660.080225     -660.080225  0.005474 -3.980564  0.002526
   scf:    6     -660.080227     -660.080226     -660.080226  0.000158 -3.981309  0.000786
   scf:    7     -660.080226     -660.080226     -660.080226  0.000067 -3.981638  0.000401

SCF Convergence by DM+H criterion
max |DM_out - DM_in|         :     0.0000670489
max |H_out - H_in|      (eV) :     0.0004010888
SCF cycle converged after 7 iterations

Using DM_out to compute the final energy and forces
No. of atoms with KB's overlaping orbs in proc 0. Max # of overlaps:      58     278

siesta: E_KS(eV) =             -660.0802

siesta: E_KS - E_eggbox =      -660.0802

siesta: Atomic forces (eV/Ang):
----------------------------------------
   Tot   -0.000000    0.000000    0.010150
----------------------------------------
   Max    0.060454
   Res    0.033470    sqrt( Sum f_i^2 / 3N )
----------------------------------------
   Max    0.060454    constrained

Stress tensor Voigt[x,y,z,yz,xz,xy] (kbar):     -488.43     -488.43     -483.54        0.00       -0.00       -0.00
(Free)E + p*V (eV/cell)     -646.0662
Target enthalpy (eV/cell)     -660.0802
Computing bands...

siesta: Band k vectors (Bohr**-1):
  ik            k
   1     0.000000     0.000000     0.000000
   2     0.016625     0.000000     0.000000
   3     0.033249     0.000000     0.000000
   4     0.049874     0.000000     0.000000
   5     0.066498     0.000000     0.000000
   6     0.083123     0.000000     0.000000
   7     0.099748     0.000000     0.000000
   8     0.116372     0.000000     0.000000
   9     0.132997     0.000000     0.000000
  10     0.149621     0.000000     0.000000
  11     0.166246     0.000000     0.000000
  12     0.182870     0.000000     0.000000
  13     0.199495     0.000000     0.000000
  14     0.216120     0.000000     0.000000
  15     0.232744     0.000000     0.000000
  16     0.249369     0.000000     0.000000
  17     0.265993     0.000000     0.000000
  18     0.282618     0.000000     0.000000
  19     0.299243     0.000000     0.000000
  20     0.315867     0.000000     0.000000
  21     0.332492     0.000000     0.000000
  22     0.349116     0.000000     0.000000
  23     0.365741     0.000000     0.000000
  24     0.382365     0.000000     0.000000
  25     0.398990     0.000000     0.000000
  26     0.415615     0.000000     0.000000
  27     0.432239     0.000000     0.000000
  28     0.448864     0.000000     0.000000
  29     0.465488     0.000000     0.000000
  30     0.482113     0.000000     0.000000
  31     0.498738     0.000000     0.000000
  32     0.515362     0.000000     0.000000
  33     0.531987     0.000000     0.000000
  34     0.548611     0.000000     0.000000
  35     0.565236     0.000000     0.000000
  36     0.581861     0.000000     0.000000
  37     0.598485     0.000000     0.000000
  38     0.615110     0.000000     0.000000
  39     0.631734     0.000000     0.000000
  40     0.648359     0.000000     0.000000
  41     0.664983     0.000000     0.000000
  42     0.681608     0.000000     0.000000
  43     0.698233     0.000000     0.000000
  44     0.714857     0.000000     0.000000
  45     0.731482     0.000000     0.000000
  46     0.748106     0.000000     0.000000
  47     0.764731     0.000000     0.000000
  48     0.781356     0.000000     0.000000
  49     0.797980     0.000000     0.000000
  50     0.814605     0.000000     0.000000
  51     0.831229     0.000000     0.000000
  52     0.825677     0.011072     0.000000
  53     0.820124     0.022144     0.000000
  54     0.814571     0.033216     0.000000
  55     0.809019     0.044288     0.000000
  56     0.803466     0.055360     0.000000
  57     0.797914     0.066432     0.000000
  58     0.792361     0.077504     0.000000
  59     0.786808     0.088576     0.000000
  60     0.781256     0.099648     0.000000
  61     0.775703     0.110720     0.000000
  62     0.770151     0.121792     0.000000
  63     0.764598     0.132864     0.000000
  64     0.759045     0.143936     0.000000
  65     0.753493     0.155008     0.000000
  66     0.747940     0.166080     0.000000
  67     0.742388     0.177152     0.000000
  68     0.736835     0.188224     0.000000
  69     0.731282     0.199296     0.000000
  70     0.725730     0.210368     0.000000
  71     0.720177     0.221439     0.000000
  72     0.714624     0.232511     0.000000
  73     0.709072     0.243583     0.000000
  74     0.703519     0.254655     0.000000
  75     0.697967     0.265727     0.000000
  76     0.692414     0.276799     0.000000
  77     0.686861     0.287871     0.000000
  78     0.681309     0.298943     0.000000
  79     0.675756     0.310015     0.000000
  80     0.670204     0.321087     0.000000
  81     0.664651     0.332159     0.000000
  82     0.659098     0.343231     0.000000
  83     0.653546     0.354303     0.000000
  84     0.647993     0.365375     0.000000
  85     0.642440     0.376447     0.000000
  86     0.636888     0.387519     0.000000
  87     0.631335     0.398591     0.000000
  88     0.625783     0.409663     0.000000
  89     0.620230     0.420735     0.000000
  90     0.614677     0.431807     0.000000
  91     0.609125     0.442879     0.000000
  92     0.603572     0.453951     0.000000
  93     0.598020     0.465023     0.000000
  94     0.592467     0.476095     0.000000
  95     0.586914     0.487167     0.000000
  96     0.581362     0.498239     0.000000
  97     0.575809     0.509311     0.000000
  98     0.570257     0.520383     0.000000
  99     0.564704     0.531455     0.000000
 100     0.559151     0.542527     0.000000
 101     0.553599     0.553599     0.000000
 102     0.542527     0.542527     0.000000
 103     0.531455     0.531455     0.000000
 104     0.520383     0.520383     0.000000
 105     0.509311     0.509311     0.000000
 106     0.498239     0.498239     0.000000
 107     0.487167     0.487167     0.000000
 108     0.476095     0.476095     0.000000
 109     0.465023     0.465023     0.000000
 110     0.453951     0.453951     0.000000
 111     0.442879     0.442879     0.000000
 112     0.431807     0.431807     0.000000
 113     0.420735     0.420735     0.000000
 114     0.409663     0.409663     0.000000
 115     0.398591     0.398591     0.000000
 116     0.387519     0.387519     0.000000
 117     0.376447     0.376447     0.000000
 118     0.365375     0.365375     0.000000
 119     0.354303     0.354303     0.000000
 120     0.343231     0.343231     0.000000
 121     0.332159     0.332159     0.000000
 122     0.321087     0.321087     0.000000
 123     0.310015     0.310015     0.000000
 124     0.298943     0.298943     0.000000
 125     0.287871     0.287871     0.000000
 126     0.276799     0.276799     0.000000
 127     0.265727     0.265727     0.000000
 128     0.254655     0.254655     0.000000
 129     0.243583     0.243583     0.000000
 130     0.232511     0.232511     0.000000
 131     0.221439     0.221439     0.000000
 132     0.210368     0.210368     0.000000
 133     0.199296     0.199296     0.000000
 134     0.188224     0.188224     0.000000
 135     0.177152     0.177152     0.000000
 136     0.166080     0.166080     0.000000
 137     0.155008     0.155008     0.000000
 138     0.143936     0.143936     0.000000
 139     0.132864     0.132864     0.000000
 140     0.121792     0.121792     0.000000
 141     0.110720     0.110720     0.000000
 142     0.099648     0.099648     0.000000
 143     0.088576     0.088576     0.000000
 144     0.077504     0.077504     0.000000
 145     0.066432     0.066432     0.000000
 146     0.055360     0.055360     0.000000
 147     0.044288     0.044288     0.000000
 148     0.033216     0.033216     0.000000
 149     0.022144     0.022144     0.000000
 150     0.011072     0.011072     0.000000
 151     0.000000     0.000000     0.000000
 152     0.000000     0.000000     0.016625
 153     0.000000     0.000000     0.033249
 154     0.000000     0.000000     0.049874
 155     0.000000     0.000000     0.066498
 156     0.000000     0.000000     0.083123
 157     0.000000     0.000000     0.099748
 158     0.000000     0.000000     0.116372
 159     0.000000     0.000000     0.132997
 160     0.000000     0.000000     0.149621
 161     0.000000     0.000000     0.166246
 162     0.000000     0.000000     0.182870
 163     0.000000     0.000000     0.199495
 164     0.000000     0.000000     0.216120
 165     0.000000     0.000000     0.232744
 166     0.000000     0.000000     0.249369
 167     0.000000     0.000000     0.265993
 168     0.000000     0.000000     0.282618
 169     0.000000     0.000000     0.299243
 170     0.000000     0.000000     0.315867
 171     0.000000     0.000000     0.332492
 172     0.000000     0.000000     0.349116
 173     0.000000     0.000000     0.365741
 174     0.000000     0.000000     0.382365
 175     0.000000     0.000000     0.398990
 176     0.000000     0.000000     0.415615
 177     0.000000     0.000000     0.432239
 178     0.000000     0.000000     0.448864
 179     0.000000     0.000000     0.465488
 180     0.000000     0.000000     0.482113
 181     0.000000     0.000000     0.498738
 182     0.000000     0.000000     0.515362
 183     0.000000     0.000000     0.531987
 184     0.000000     0.000000     0.548611
 185     0.000000     0.000000     0.565236
 186     0.000000     0.000000     0.581861
 187     0.000000     0.000000     0.598485
 188     0.000000     0.000000     0.615110
 189     0.000000     0.000000     0.631734
 190     0.000000     0.000000     0.648359
 191     0.000000     0.000000     0.664983
 192     0.000000     0.000000     0.681608
 193     0.000000     0.000000     0.698233
 194     0.000000     0.000000     0.714857
 195     0.000000     0.000000     0.731482
 196     0.000000     0.000000     0.748106
 197     0.000000     0.000000     0.764731
 198     0.000000     0.000000     0.781356
 199     0.000000     0.000000     0.797980
 200     0.000000     0.000000     0.814605
 201     0.000000     0.000000     0.831229
 202     0.016625     0.000000     0.831229
 203     0.033249     0.000000     0.831229
 204     0.049874     0.000000     0.831229
 205     0.066498     0.000000     0.831229
 206     0.083123     0.000000     0.831229
 207     0.099748     0.000000     0.831229
 208     0.116372     0.000000     0.831229
 209     0.132997     0.000000     0.831229
 210     0.149621     0.000000     0.831229
 211     0.166246     0.000000     0.831229
 212     0.182870     0.000000     0.831229
 213     0.199495     0.000000     0.831229
 214     0.216120     0.000000     0.831229
 215     0.232744     0.000000     0.831229
 216     0.249369     0.000000     0.831229
 217     0.265993     0.000000     0.831229
 218     0.282618     0.000000     0.831229
 219     0.299243     0.000000     0.831229
 220     0.315867     0.000000     0.831229
 221     0.332492     0.000000     0.831229
 222     0.349116     0.000000     0.831229
 223     0.365741     0.000000     0.831229
 224     0.382365     0.000000     0.831229
 225     0.398990     0.000000     0.831229
 226     0.415615     0.000000     0.831229
 227     0.432239     0.000000     0.831229
 228     0.448864     0.000000     0.831229
 229     0.465488     0.000000     0.831229
 230     0.482113     0.000000     0.831229
 231     0.498738     0.000000     0.831229
 232     0.515362     0.000000     0.831229
 233     0.531987     0.000000     0.831229
 234     0.548611     0.000000     0.831229
 235     0.565236     0.000000     0.831229
 236     0.581861     0.000000     0.831229
 237     0.598485     0.000000     0.831229
 238     0.615110     0.000000     0.831229
 239     0.631734     0.000000     0.831229
 240     0.648359     0.000000     0.831229
 241     0.664983     0.000000     0.831229
 242     0.681608     0.000000     0.831229
 243     0.698233     0.000000     0.831229
 244     0.714857     0.000000     0.831229
 245     0.731482     0.000000     0.831229
 246     0.748106     0.000000     0.831229
 247     0.764731     0.000000     0.831229
 248     0.781356     0.000000     0.831229
 249     0.797980     0.000000     0.831229
 250     0.814605     0.000000     0.831229
 251     0.831229     0.000000     0.831229
 252     0.825677     0.011072     0.831229
 253     0.820124     0.022144     0.831229
 254     0.814571     0.033216     0.831229
 255     0.809019     0.044288     0.831229
 256     0.803466     0.055360     0.831229
 257     0.797914     0.066432     0.831229
 258     0.792361     0.077504     0.831229
 259     0.786808     0.088576     0.831229
 260     0.781256     0.099648     0.831229
 261     0.775703     0.110720     0.831229
 262     0.770151     0.121792     0.831229
 263     0.764598     0.132864     0.831229
 264     0.759045     0.143936     0.831229
 265     0.753493     0.155008     0.831229
 266     0.747940     0.166080     0.831229
 267     0.742388     0.177152     0.831229
 268     0.736835     0.188224     0.831229
 269     0.731282     0.199296     0.831229
 270     0.725730     0.210368     0.831229
 271     0.720177     0.221439     0.831229
 272     0.714624     0.232511     0.831229
 273     0.709072     0.243583     0.831229
 274     0.703519     0.254655     0.831229
 275     0.697967     0.265727     0.831229
 276     0.692414     0.276799     0.831229
 277     0.686861     0.287871     0.831229
 278     0.681309     0.298943     0.831229
 279     0.675756     0.310015     0.831229
 280     0.670204     0.321087     0.831229
 281     0.664651     0.332159     0.831229
 282     0.659098     0.343231     0.831229
 283     0.653546     0.354303     0.831229
 284     0.647993     0.365375     0.831229
 285     0.642440     0.376447     0.831229
 286     0.636888     0.387519     0.831229
 287     0.631335     0.398591     0.831229
 288     0.625783     0.409663     0.831229
 289     0.620230     0.420735     0.831229
 290     0.614677     0.431807     0.831229
 291     0.609125     0.442879     0.831229
 292     0.603572     0.453951     0.831229
 293     0.598020     0.465023     0.831229
 294     0.592467     0.476095     0.831229
 295     0.586914     0.487167     0.831229
 296     0.581362     0.498239     0.831229
 297     0.575809     0.509311     0.831229
 298     0.570257     0.520383     0.831229
 299     0.564704     0.531455     0.831229
 300     0.559151     0.542527     0.831229
 301     0.553599     0.553599     0.831229
 302     0.542527     0.542527     0.831229
 303     0.531455     0.531455     0.831229
 304     0.520383     0.520383     0.831229
 305     0.509311     0.509311     0.831229
 306     0.498239     0.498239     0.831229
 307     0.487167     0.487167     0.831229
 308     0.476095     0.476095     0.831229
 309     0.465023     0.465023     0.831229
 310     0.453951     0.453951     0.831229
 311     0.442879     0.442879     0.831229
 312     0.431807     0.431807     0.831229
 313     0.420735     0.420735     0.831229
 314     0.409663     0.409663     0.831229
 315     0.398591     0.398591     0.831229
 316     0.387519     0.387519     0.831229
 317     0.376447     0.376447     0.831229
 318     0.365375     0.365375     0.831229
 319     0.354303     0.354303     0.831229
 320     0.343231     0.343231     0.831229
 321     0.332159     0.332159     0.831229
 322     0.321087     0.321087     0.831229
 323     0.310015     0.310015     0.831229
 324     0.298943     0.298943     0.831229
 325     0.287871     0.287871     0.831229
 326     0.276799     0.276799     0.831229
 327     0.265727     0.265727     0.831229
 328     0.254655     0.254655     0.831229
 329     0.243583     0.243583     0.831229
 330     0.232511     0.232511     0.831229
 331     0.221439     0.221439     0.831229
 332     0.210368     0.210368     0.831229
 333     0.199296     0.199296     0.831229
 334     0.188224     0.188224     0.831229
 335     0.177152     0.177152     0.831229
 336     0.166080     0.166080     0.831229
 337     0.155008     0.155008     0.831229
 338     0.143936     0.143936     0.831229
 339     0.132864     0.132864     0.831229
 340     0.121792     0.121792     0.831229
 341     0.110720     0.110720     0.831229
 342     0.099648     0.099648     0.831229
 343     0.088576     0.088576     0.831229
 344     0.077504     0.077504     0.831229
 345     0.066432     0.066432     0.831229
 346     0.055360     0.055360     0.831229
 347     0.044288     0.044288     0.831229
 348     0.033216     0.033216     0.831229
 349     0.022144     0.022144     0.831229
 350     0.011072     0.011072     0.831229
 351     0.000000     0.000000     0.831229

siesta: Band energies (eV):
  ik is       eps
   1  1  -21.5901  -18.9297  -12.8974   -6.2801   -6.2801   -4.8493   -4.7341   -4.7341   -3.5466   -1.1094
           3.9157    4.2321    4.2321    4.8447    6.3288    6.3288   11.8101   12.9162   12.9162   15.6534
   15.9162   15.9162   16.0748   20.0802   20.0802   20.2893   24.2860   24.2860   27.0343   28.0146
   29.3267   29.3267   37.3968   37.3968   37.9048   38.6622   38.6622   51.6870   51.6870   54.7212
   61.3943   66.6777   66.6777   67.9740   70.2888   70.2888   72.9473   80.6185   98.7519   98.7519
  102.3730  102.3732
   2  1  -21.5874  -18.9275  -12.8946   -6.2974   -6.2855   -4.8527   -4.7646   -4.7370   -3.5197   -1.0957
           3.9142    4.2185    4.2371    4.8501    6.3187    6.3336   11.7374   12.9067   13.0034   15.4529
   15.9401   16.0744   16.1357   20.0574   20.0779   20.3245   24.2855   24.2877   27.0354   28.0353
   29.3252   29.3507   37.1728   37.3700   38.1368   38.6935   38.6951   51.6974   51.9700   54.7428
   61.3868   66.1912   66.6277   68.5734   70.3609   70.4103   72.9500   80.6793   98.5840   98.9647
  102.5572  102.7775
   3  1  -21.5793  -18.9208  -12.8861   -6.3486   -6.3016   -4.8703   -4.8413   -4.7456   -3.4459   -1.0552
           3.9090    4.1788    4.2527    4.8659    6.2890    6.3482   11.5713   12.8756   13.2104   15.1903
   16.0044   16.0909   16.4565   19.9938   20.0715   20.4272   24.2833   24.2924   27.0398   28.0929
   29.3221   29.4246   36.8222   37.2995   38.3875   38.7837   38.9041   51.7271   52.7064   54.8070
   61.3646   65.4730   66.5045   69.4718   70.7135   70.7204   72.9721   80.8724   98.2289   99.4540
  103.1778  103.8521
   4  1  -21.5658  -18.9096  -12.8720   -6.4314   -6.3289   -4.9797   -4.8714   -4.7602   -3.3398   -0.9897
           3.8984    4.1156    4.2805    4.8913    6.2410    6.3721   11.3776   12.8160   13.4663   14.9625
   16.0530   16.2006   16.7851   19.8957   20.0625   20.5964   24.2785   24.2999   27.0491   28.1749
   29.3198   29.5535   36.4660   37.2059   38.4470   38.9073   39.3680   51.7723   53.6479   54.9119
   61.3272   64.8294   66.3581   69.9545   71.1025   71.6272   73.1138   81.2188   97.8782   99.9269
  104.3141  105.4339
   5  1  -21.5467  -18.8941  -12.8523   -6.5427   -6.3680   -5.1294   -4.8926   -4.7813   -3.2146   -0.9019
           3.8804    4.0326    4.3220    4.9252    6.1768    6.4051   11.1827   12.7194   13.7422   14.7872
   16.0931   16.4108   17.1062   19.7686   20.0522   20.8343   24.2702   24.3095   27.0648   28.2636
   29.3205   29.7432   36.1144   37.1073   38.4527   39.0471   39.9233   51.8273   54.5708   55.0547
   61.2737   64.2851   66.2246   70.1719   71.4554   72.3483   73.9007   81.7268   97.6210  100.2532
  105.8250  107.4746
   6  1  -21.5220  -18.8744  -12.8271   -6.6788   -6.4196   -5.2952   -4.9189   -4.8091   -3.0787   -0.7949
           3.8539    3.9341    4.3777    4.9662    6.0988    6.4469   10.9930   12.5805   14.0336   14.6726
   16.1540   16.6932   17.4101   19.6199   20.0414   21.1429   24.2583   24.3206   27.0877   28.3420
   29.3255   29.9953   35.7706   37.0161   38.4510   39.1911   40.5096   51.8851   55.2313   55.3541
   61.2006   63.8341   66.1213   70.3388   71.7306   72.4810   75.4345   82.3777   97.4967  100.4669
  107.4298  109.9732
   7  1  -21.4917  -18.8506  -12.7964   -6.8356   -6.4851   -5.4698   -4.9510   -4.8439   -2.9372   -0.6721
           3.8184    3.8248    4.4474    5.0124    6.0101    6.4973   10.8101   12.4013   14.3432   14.6179
   16.2404   17.0358   17.6876   19.4592   20.0309   21.5230   24.2429   24.3328   27.1179   28.3987
   29.3355   30.3033   35.4369   36.9394   38.4491   39.3330   41.1069   51.9386   55.4366   55.9654
   61.1029   63.4662   66.0520   70.4961   71.9311   72.4726   77.1216   83.1286   97.5275  100.6152
  108.9070  112.9114
   8  1  -21.4559  -18.8230  -12.7602   -7.0094   -6.5660   -5.6480   -4.9888   -4.8860   -2.7931   -0.5368
           3.7089    3.7739    4.5300    5.0621    5.9138    6.5559   10.6354   12.1903   14.6150   14.6722
   16.3544   17.4269   17.9283   19.3003   20.0212   21.9726   24.2244   24.3458   27.1557   28.4295
   29.3507   30.6530   35.1149   36.8813   38.4467   39.4711   41.7030   51.9815   55.6645   56.4187
   60.9739   63.1716   66.0106   70.6439   72.0923   72.4364   78.7262   83.9241   97.7250  100.7178
  110.1361  116.1976
   9  1  -21.4146  -18.7918  -12.7188   -7.1966   -6.6639   -5.8257   -5.0326   -4.9353   -2.6479   -0.3919
           3.5905    3.7209    4.6239    5.1130    5.8127    6.6228   10.4709   11.9585   14.6529   15.0173
   16.4991   17.8558   18.1140   19.1665   20.0134   22.4862   24.2033   24.3600   27.2014   28.4355
   29.3714   31.0259   34.8056   36.8437   38.4406   39.6071   42.2868   52.0085   55.9082   56.7438
   60.8076   62.9425   65.9815   70.7704   72.2635   72.4026   80.1194   84.7079   98.0844  100.7719
  111.0683  119.6180
  10  1  -21.3679  -18.7572  -12.6723   -7.3938   -6.7803   -5.9999   -5.0822   -4.9919   -2.5022   -0.2399
           3.4727    3.6595    4.7274    5.1628    5.7100    6.6976   10.3195   11.7160   14.7218   15.3702
   16.6801   18.2114   18.3127   19.0982   20.0087   23.0532   24.1805   24.3771   27.2554   28.4219
   29.3973   31.4036   34.5100   36.8281   38.4269   39.7449   42.8476   52.0161   56.1605   56.9712
   60.6008   62.7726   65.9406   70.8592   72.3868   72.4964   81.2313   85.4292   98.5766  100.7553
  111.6944  122.8229
  11  1  -21.3158  -18.7194  -12.6207   -7.5983   -6.9158   -6.1686   -5.1377   -5.0558   -2.3562   -0.0830
           3.3586    3.5903    4.8382    5.2094    5.6084    6.7802   10.1839   11.4708   14.8139   15.7180
   16.9050   18.1915   18.7882   19.1322   20.0099   23.6510   24.1568   24.4066   27.3183   28.3977
   29.4278   31.7699   34.2291   36.8364   38.4002   39.8894   43.3753   52.0031   56.4142   57.1260
   60.3540   62.6569   65.8598   70.8957   72.3965   72.8373   82.0499   86.0477   99.1466  100.6259
  112.0262  125.3756
  12  1  -21.2584  -18.6787  -12.5642   -7.8073   -7.0698   -6.3313   -5.1987   -5.1267   -2.2099    0.0770
           3.2502    3.5137    4.9537    5.2504    5.5108    6.8700   10.0669   11.2288   14.9235   16.0470
   17.1810   18.0800   19.2501   19.2701   20.0229   24.1337   24.1708   24.5369   27.3909   28.3782
   29.4617   32.1136   33.9641   36.8718   38.3545   40.0450   43.8620   51.9699   56.6625   57.2258
   60.0715   62.5908   65.7151   70.8743   72.4277   73.3187   82.6076   86.5363   99.7206  100.3187
  112.0935  126.8704
  13  1  -21.1958  -18.6354  -12.5031   -8.0185   -7.2403   -6.4890   -5.2653   -5.2046   -2.0630    0.2385
           3.1493    3.4300    5.0694    5.2842    5.4212    6.9666    9.9705   10.9946   15.0465   16.3496
   17.5071   17.9251   19.4109   19.7238   20.0778   24.1132   24.3200   25.0281   27.4741   28.3886
   29.4966   32.4306   33.7167   36.9379   38.2831   40.2152   44.3026   51.9196   56.8998   57.2800
   59.7608   62.5692   65.4942   70.7990   72.4661   73.9538   82.9588   86.8828   99.7456  100.2172
  111.9506  127.0693
  14  1  -21.1281  -18.5897  -12.4376   -8.2298   -7.4240   -6.6439   -5.3372   -5.2892   -1.9151    0.4004
           3.0571    3.3399    5.1722    5.3091    5.3518    7.0691    9.8965   10.7718   15.1795   16.6284
   17.7557   17.8695   19.5920   19.9647   20.3563   24.0982   24.3457   25.5803   27.5692   28.4702
   29.5297   32.7260   33.4895   37.0371   38.1794   40.4028   44.6963   51.8573   57.1221   57.2897
   59.4309   62.5856   65.1989   70.6789   72.4941   74.7349   83.1608   87.0884   98.8073  100.5541
  111.6835  125.9866
  15  1  -21.0554  -18.5420  -12.3679   -8.4392   -7.6177   -6.7980   -5.4143   -5.3802   -1.7660    0.5614
           2.9742    3.2440    5.1980    5.3245    5.3653    7.1764    9.8459   10.5631   15.3193   16.8923
   17.5864   18.2434   19.7846   20.0431   20.8081   24.0924   24.3532   26.0177   27.6773   28.6755
   29.5566   33.0165   33.2853   37.1679   38.0379   40.6115   45.0463   51.7900   57.2472   57.3276
   59.0917   62.6311   64.8438   70.5224   72.4975   75.6363   83.2629   87.1622   97.4252  100.6502
  111.3986  123.8754
  16  1  -20.9778  -18.4925  -12.2946   -8.6451   -7.8183   -6.9531   -5.4962   -5.4772   -1.6151    0.7205
           2.9013    3.1430    5.1479    5.3299    5.4590    7.2876    9.8190   10.3707   15.4624   17.1507
   17.4261   18.5970   19.9857   20.1299   21.2674   24.1012   24.3535   26.2797   27.7994   29.0267
   29.5726   33.1075   33.3307   37.3236   37.8556   40.8477   45.3590   51.7259   57.1370   57.5167
   58.7520   62.6938   64.4529   70.3361   72.4685   76.6178   83.3023   87.1104   95.5936  100.4246
  111.1920  121.1340
  17  1  -20.8955  -18.4415  -12.2179   -8.8455   -8.0232   -7.1105   -5.5827   -5.5800   -1.4623    0.8769
           2.8384    3.0379    5.0921    5.3258    5.5607    7.4013    9.8154   10.1962   15.6042   17.2820
   17.4105   18.8950   20.1946   20.2615   21.7070   24.1314   24.3486   26.3815   27.9358   29.4708
   29.5727   32.9595   33.7036   37.4936   37.6334   41.1224   45.6434   51.6741   56.9369   57.6921
   58.4186   62.7585   64.0579   70.1262   72.4061   77.6269   83.3029   86.9086   93.4320   99.8043
  111.1212  118.1863
  18  1  -20.8086  -18.3896  -12.1387   -9.0389   -8.2302   -7.2708   -5.6881   -5.6738   -1.3071    1.0294
           2.7856    2.9297    5.0437    5.3129    5.6556    7.5162    9.8341   10.0407   15.7378   17.1621
   17.6755   19.1102   20.4112   20.4504   22.1159   24.1911   24.3391   26.3790   28.0855   29.5532
   29.9160   32.8434   34.1602   37.3780   37.6698   41.4514   45.9085   51.6431   56.6216   57.8578
   58.0963   62.8069   63.6949   69.9004   72.3152   78.6002   83.2744   86.4170   91.2558   98.7492
  111.2039  115.3770
  19  1  -20.7172  -18.3373  -12.0575   -9.2234   -8.4378   -7.4342   -5.8010   -5.7690   -1.1495    1.1767
           2.7428    2.8196    5.0056    5.2927    5.7389    7.6307    9.8737    9.9046   15.8532   17.0768
   17.9475   19.2409   20.6363   20.6825   22.4850   24.2890   24.3248   26.3195   28.2440   29.5148
   30.2979   32.7593   34.6870   37.1031   37.8594   41.8530   46.1626   51.6398   56.1681   57.7907
   58.0192   62.8175   63.3985   69.6696   72.2049   79.4646   83.2118   85.2488   89.6663   97.2945
  111.4344  112.8982
  20  1  -20.6216  -18.2849  -11.9753   -9.3970   -8.6445   -7.6005   -5.9183   -5.8684   -0.9892    1.3173
           2.7091    2.7096    4.9792    5.2665    5.8084    7.7435    9.7876    9.9325   15.9377   17.0383
   18.2263   19.3061   20.8710   20.9252   22.8058   24.3056   24.4308   26.2320   28.3977   29.4690
   30.5988   32.7037   35.2071   36.8301   38.1044   42.3429   46.4116   51.6684   55.5650   57.5107
   58.1821   62.7675   63.1923   69.4491   72.0876   80.1332   83.0934   83.2785   89.0088   95.5735
  110.7721  111.7983
  21  1  -20.5220  -18.2332  -11.8935   -9.5576   -8.8492   -7.7694   -6.0392   -5.9716   -0.8263    1.4487
           2.6006    2.6859    4.9651    5.2360    5.8625    7.8530    9.6887   10.0086   15.9812   17.0554
   18.5086   19.3266   21.1168   21.1512   23.0719   24.2812   24.6135   26.1327   28.5120   29.4520
   30.8331   32.6686   35.5896   36.5870   38.4859   42.9292   46.6589   51.7304   54.8242   57.2655
   58.3516   62.6347   63.0840   69.2554   71.9787   80.2395   81.3449   82.8793   88.9112   93.7832
  108.9093  112.2789
  22  1  -20.4186  -18.1828  -11.8136   -9.7029   -9.0507   -7.9404   -6.1634   -6.0784   -0.6607    1.5670
           2.4977    2.6712    4.9641    5.2030    5.9009    7.9573    9.6059   10.1004   15.9847   17.1251
   18.7838   19.3211   21.3493   21.3756   23.2820   24.2512   24.8207   26.0313   28.5260   29.5291
   31.0251   32.6436   35.7354   36.4066   39.0586   43.6088   46.9053   51.8238   53.9844   57.0609
   58.5322   62.4028   63.0663   69.1005   71.8979   78.4572   81.1524   82.5148   89.0532   92.1190
  107.1965  112.8567
  23  1  -20.3117  -18.1344  -11.7374   -9.8301   -9.2483   -8.1128   -6.2901   -6.1886   -0.4927    1.6654
           2.4072    2.6655    4.9765    5.1688    5.9240    8.0546    9.5366   10.2063   15.9600   17.2328
   19.0023   19.3390   21.5216   21.6498   23.4399   24.2155   25.0238   25.9338   28.4120   29.7348
   31.1957   32.6196   35.6538   36.3200   39.7846   44.3665   47.1487   51.9445   53.1036   56.8997
   58.7262   62.0655   63.1239   68.9832   71.8712   76.4669   81.2001   81.9484   89.2762   90.7253
  105.5516  113.5057
  24  1  -20.2015  -18.0886  -11.6675   -9.9360   -9.4409   -8.2861   -6.4187   -6.3021   -0.3224    1.7318
           2.3409    2.6682    5.0027    5.1349    5.9329    8.1430    9.4780   10.3252   15.9203   17.3617
   19.0340   19.5054   21.6776   21.9416   23.5524   24.1741   25.1919   25.8442   28.2037   30.0401
   31.3598   32.5962   35.4092   36.3490   40.5890   45.1746   47.3828   52.0872   52.2489   56.7826
   58.9332   61.6289   63.2395   68.8830   71.9334   74.7224   81.1289   81.1706   89.4806   89.6623
  103.9375  114.1880
  25  1  -20.0885  -18.0462  -11.6062  -10.0175   -9.6277   -8.4596   -6.5486   -6.4185   -0.1503    1.7505
           2.3143    2.6793    5.0427    5.1025    5.9293    8.2203    9.4268   10.4563   15.8751   17.4988
   18.9314   19.7606   21.8278   22.2528   23.6261   24.1271   25.3019   25.7659   27.9400   30.4023
   31.5259   32.5880   35.0565   36.4999   41.4210   45.9965   47.5934   51.4918   52.2460   56.7085
   59.1487   61.1097   63.3980   68.7615   72.1239   73.2621   80.2431   80.9507   88.8969   89.6001
  102.3550  114.8500
  26  1  -19.9730  -18.0080  -11.5561  -10.0716   -9.8081   -8.6327   -6.6792   -6.5375    0.0233    1.7172
           2.3317    2.6985    5.0726    5.0965    5.9153    8.2845    9.3798   10.5990   15.8290   17.6354
   18.7697   20.0224   21.9794   22.5838   23.6680   24.0756   25.3441   25.7018   27.6481   30.7745
   31.6977   32.6269   34.6323   36.7650   42.2575   46.7912   47.7520   50.9096   52.4167   56.6741
   59.3618   60.5313   63.5881   68.5771   72.0847   72.4757   79.2819   80.6899   88.3394   89.5962
  100.8308  115.4207
  27  1  -19.8554  -17.9745  -11.5186  -10.0964   -9.9811   -8.8048   -6.8097   -6.6590    0.1978    1.6467
           2.3780    2.7256    5.0460    5.1636    5.8928    8.3335    9.3344   10.7530   15.7837   17.7663
   18.5645   20.2702   22.1323   22.9316   23.6872   24.0216   25.3218   25.6558   27.3494   31.0984
   31.8750   32.7563   34.1612   37.1278   43.0920   47.5189   47.8137   50.5838   52.5966   56.6731
   59.5293   59.9451   63.8031   68.3023   71.1791   73.0020   78.4124   80.3661   87.8984   89.4537
   99.4044  115.8168
  28  1  -19.7364  -17.9464  -11.4933  -10.1459  -10.0918   -8.9753   -6.9394   -6.7826    0.3725    1.5569
           2.4357    2.7605    5.0233    5.2433    5.8640    8.3657    9.2884   10.9182   15.7388   17.8889
   18.3220   20.4963   22.2769   23.2854   23.6974   23.9718   25.2476   25.6336   27.0609   31.3284
   32.0544   33.0024   33.6604   37.5693   43.9255   47.7506   48.1464   50.5672   52.7863   56.6965
   59.1809   59.8237   64.0407   67.9362   70.5337   73.6915   77.7361   79.9932   87.5117   89.1739
   98.1184  115.9526
  29  1  -19.6164  -17.9244  -11.4782  -10.3018  -10.0598   -9.1437   -7.0678   -6.9079    0.5467    1.4587
           2.4940    2.8031    5.0048    5.3344    5.8309    8.3796    9.2403   11.0941   15.6923   18.0027
   18.0478   20.6974   22.3945   23.5999   23.7179   23.9615   25.1392   25.6457   26.7945   31.4697
   32.2300   33.1426   33.3364   38.0706   44.7612   47.5978   48.6485   50.8370   52.9892   56.7330
   58.5207   59.9630   64.3021   67.5077   70.1399   74.5109   77.3138   79.5808   87.1515   88.7695
   97.0124  115.7579
  30  1  -19.4960  -17.9089  -11.4695  -10.4479  -10.0041   -9.3095   -7.1941   -7.0346    0.7196    1.3580
           2.5475    2.8533    4.9910    5.4353    5.7956    8.3740    9.1892   11.2804   15.6417   17.7482
   18.1086   20.8713   22.4654   23.7141   23.7677   24.1305   25.0165   25.7115   26.5566   31.5602
   32.3923   32.6189   33.6966   38.6148   45.6021   47.4180   49.0095   51.3286   53.2116   56.7722
   57.8351   60.0822   64.5878   67.0681   69.9940   75.4020   77.1627   79.1358   86.8195   88.2594
   96.1226  115.1955
  31  1  -19.3760  -17.9002  -11.4633  -10.5832   -9.9290   -9.4722   -7.3176   -7.1623    0.8900    1.2582
           2.5932    2.9110    4.9821    5.5423    5.7614    8.3483    9.1352   11.4768   15.5843   17.4308
   18.2085   21.0152   22.4848   23.6800   23.8501   24.3939   24.9001   25.8620   26.3494   31.6308
   32.0885   32.5406   34.0323   39.1863   46.4476   47.2490   49.2220   51.9841   53.4606   56.8098
   57.1559   60.1707   64.8931   66.6711   70.0970   76.2562   77.2891   78.6634   86.5369   87.6658
   95.4874  114.2759
  32  1  -19.2570  -17.8985  -11.4556  -10.7070   -9.8387   -9.6316   -7.4376   -7.2906    1.0569    1.1615
           2.6296    2.9762    4.9780    5.6385    5.7449    8.3023    9.0789   11.6826   15.5173   17.1032
   18.3045   21.1241   22.4711   23.6202   23.9407   24.5982   24.8152   26.1251   26.1728   31.5680
   31.6964   32.6552   34.3153   39.7710   47.1020   47.2918   49.2865   52.7480   53.7400   56.5200
   56.8577   60.2340   65.2061   66.3537   70.4494   76.8567   77.7663   78.1689   86.3281   87.0113
   95.1552  113.0619
  33  1  -19.1399  -17.9040  -11.4438  -10.8184   -9.7871   -9.7369   -7.5532   -7.4190    1.0693    1.2192
           2.6558    3.0486    4.9789    5.6515    5.8172    8.2363    9.0211   11.8971   15.4387   16.7735
   18.3981   21.1917   22.4536   23.5568   23.9958   24.7222   24.7927   26.0261   26.4963   31.0565
   31.7613   32.7339   34.5351   40.3565   46.9751   48.1213   49.2116   53.5382   54.0352   55.9873
   56.9590   60.2802   65.5137   66.1304   71.0391   77.1480   77.6604   78.4976   86.1977   86.3181
   95.1843  111.6595
  34  1  -19.0255  -17.9166  -11.4257  -10.9163   -9.9384   -9.6266   -7.6638   -7.5472    0.9828    1.3756
           2.6716    3.1279    4.9848    5.6200    5.9385    8.1508    8.9635   12.1197   15.3471   16.4486
   18.4906   21.2148   22.4561   23.4959   23.9855   24.7889   24.8477   25.9108   26.9435   30.5581
   31.8239   32.7707   34.6927   40.9318   46.8630   48.9099   49.0213   54.2192   54.2680   55.6736
   57.2068   60.3160   65.8124   66.0005   71.8252   77.1547   77.2501   79.2431   85.6069   86.1155
   95.6235  110.2002
  35  1  -18.9146  -17.9361  -11.4003  -11.0001  -10.0854   -9.5103   -7.7682   -7.6747    0.9030    1.5249
           2.6766    3.2131    4.9957    5.5827    6.0683    8.0472    8.9076   12.3496   15.2425   16.1349
   18.5817   21.1987   22.4871   23.4409   23.9225   24.8233   24.9525   25.8330   27.4354   30.0760
   31.8798   32.7625   34.7964   41.4874   46.7619   48.7242   49.6537   54.2792   54.6375   55.7536
   57.7038   60.3453   65.9584   66.1117   72.7217   76.6921   77.1814   79.9217   84.8969   86.0333
   96.4747  108.8168
  36  1  -18.8080  -17.9620  -11.3673  -11.0689  -10.2277   -9.3900   -7.8657   -7.8010    0.8309    1.6662
           2.6709    3.3031    5.0115    5.5440    6.2003    7.9274    8.8552   12.5860   15.1255   15.8372
   18.6704   21.1562   22.5418   23.3942   23.8346   24.8414   25.0589   25.8079   27.9509   29.6129
   31.9237   32.7087   34.8572   42.0148   46.6706   48.3783   50.3086   54.1079   54.7684   56.1747
   58.4157   60.3710   65.9999   66.4297   73.5608   76.3817   76.9592   80.5019   84.2057   85.9224
   97.6687  107.6221
  37  1  -18.7067  -17.9940  -11.3271  -11.1221  -10.3650   -9.2672   -7.9551   -7.9256    0.7670    1.7986
           2.6547    3.3958    5.0323    5.5046    6.3320    7.7939    8.8080   12.8281   14.9980   15.5590
   18.7549   21.1018   22.6092   23.3577   23.7403   24.8523   25.1251   25.8574   28.4756   29.1717
   31.9501   32.6106   34.8872   42.5057   46.5903   48.0116   50.8693   53.9102   54.7111   56.7398
   59.1827   60.3968   66.1236   66.7807   74.0387   76.4707   76.6203   80.9573   83.5503   85.7876
   99.0819  106.6905
  38  1  -18.6114  -18.0313  -11.2805  -11.1589  -10.4972   -9.1435   -8.0481   -8.0351    0.7123    1.9216
           2.6283    3.4880    5.0582    5.4641    6.4614    7.6502    8.7674   13.0751   14.8627   15.3026
   18.8325   21.0468   22.6791   23.3327   23.6495   24.8613   25.1374   25.9855   28.7469   29.0074
   31.9544   32.4711   34.8975   42.9513   46.5249   47.6552   51.3300   53.7449   54.5553   57.3312
   59.8657   60.4298   66.3277   67.1594   74.0280   76.2049   77.0459   81.2700   82.9473   85.6523
  100.5715  106.0471
  39  1  -18.5229  -18.0735  -11.2289  -11.1792  -10.6240   -9.0200   -8.1681   -8.1043    0.6672    2.0349
           2.5919    3.5758    5.0893    5.4223    6.5869    7.5007    8.7347   13.3262   14.7228   15.0689
   18.9006   20.9981   22.7431   23.3202   23.5676   24.8716   25.1130   26.1710   28.3557   29.5225
   31.9330   32.2941   34.8973   43.3412   46.4793   47.3319   51.6897   53.6278   54.3535   57.8700
   60.3901   60.4813   66.6049   67.5251   73.8352   75.7469   77.7873   81.4423   82.4145   85.5374
  102.0016  105.6652
  40  1  -18.4417  -18.1197  -11.1827  -11.1738  -10.7451   -8.8980   -8.2851   -8.1612    0.6323    2.1387
           2.5459    3.6536    5.1258    5.3787    6.7071    7.3512    8.7104   13.5803   14.5820   14.8585
   18.9561   20.9597   22.7954   23.3200   23.4978   24.8855   25.0717   26.3929   27.9871   30.0250
   31.8841   32.0849   34.8935   43.6631   46.4596   47.0561   51.9483   53.5667   54.1387   58.2950
   60.5643   60.7354   66.9356   67.8058   73.7017   75.2751   78.4616   81.5011   81.9721   85.4511
  103.2558  105.4739
  41  1  -18.3685  -18.1693  -11.1701  -11.1174  -10.8597   -8.7790   -8.3987   -8.2038    0.6079    2.2330
           2.4908    3.7150    5.1675    5.3331    6.8210    7.2083    8.6947   13.8353   14.4443   14.6720
   18.9965   20.9333   22.8320   23.3317   23.4417   24.9045   25.0254   26.6396   27.6443   30.5003
   31.8076   31.8535   34.8902   43.9024   46.4717   46.8348   52.1082   53.5658   53.9362   58.5726
   60.6821   60.9140   67.2831   67.9338   73.7261   74.8163   78.9701   81.4914   81.6466   85.3909
  104.2424  105.3761
  42  1  -18.3034  -18.2216  -11.1449  -11.0616  -10.9643   -8.6648   -8.5083   -8.2295    0.5945    2.3182
           2.4270    3.7530    5.2137    5.2855    6.9279    7.0804    8.6869   14.0829   14.3136   14.5158
   19.0198   20.9190   22.8515   23.3534   23.3989   24.9299   24.9812   26.9057   27.3273   30.9072
   31.6399   31.7051   34.8888   44.0434   46.5209   46.6697   52.1823   53.6186   53.7691   58.7069
   60.8157   60.9510   67.5966   67.8914   73.9169   74.3987   79.2594   81.4599   81.4699   85.3537
  104.8984  105.2734
  43  1  -18.2759  -18.2468  -11.1346  -11.0319  -11.0085   -8.6137   -8.5583   -8.2347    0.5919    2.3547
           2.3945    3.7607    5.2362    5.2629    6.9763    7.0273    8.6856   14.1939   14.2429   14.4680
   19.0242   20.9164   22.8550   23.3663   23.3827   24.9443   24.9628   27.0352   27.1885   31.0238
   31.5793   31.6659   34.8887   44.0711   46.5577   46.6113   52.1940   53.6584   53.7078   58.7292
   60.8712   60.9291   67.7163   67.8221   74.0497   74.2264   79.3125   81.4394   81.4514   85.3456
  105.0892  105.1926
  44  1  -18.3315  -18.1986  -11.2021  -11.0002  -10.9602   -8.7142   -8.4645   -8.2140    0.6002    2.2744
           2.4616    3.7328    5.1859    5.3126    6.9045    7.1193    8.6887   14.0888   14.1701   14.6715
   19.0091   20.9244   22.8457   23.3382   23.4161   24.9199   25.0038   26.7663   27.4861   30.7837
   31.4342   31.9988   34.8878   43.9741   46.4923   46.7454   52.1675   53.6219   53.8152   58.6738
   60.6942   60.9868   67.4664   67.9222   73.7859   74.5953   79.1725   81.4355   81.5419   85.3881
  104.7836  105.1279
  45  1  -18.3878  -18.1585  -11.2916  -10.9263  -10.9182   -8.8094   -8.3880   -8.1624    0.6191    2.1864
           2.5191    3.6670    5.1357    5.3600    6.8715    7.2043    8.6935   14.0018   14.0593   14.9289
   18.9742   20.9420   22.8280   23.3082   23.4490   24.9134   25.0534   26.5180   27.7967   30.4508
   31.2738   32.3780   34.8834   43.7477   46.4650   46.9245   52.1189   53.6717   53.9298   58.5668
   60.4361   60.9627   67.1895   67.8934   73.6019   74.9771   78.9085   81.4205   81.6695   85.5208
  104.3562  104.7419
  46  1  -18.4442  -18.1262  -11.3800  -10.8839  -10.8344   -8.8987   -8.3256   -8.0834    0.6479    2.0910
           2.5650    3.5654    5.0870    5.4030    6.8798    7.2827    8.6972   13.9357   13.9545   15.1941
   18.9198   20.9678   22.8051   23.2705   23.4763   24.9302   25.1113   26.2864   28.1180   30.0877
   31.1028   32.7462   34.8730   43.3958   46.4663   47.1471   52.0558   53.8118   54.0469   58.4253
   60.1114   60.8406   66.9152   67.7632   73.4697   75.3322   78.5838   81.3403   81.7851   85.7954
  103.8394  104.1035
  47  1  -18.5002  -18.1011  -11.4646  -10.8577  -10.7294   -8.9812   -8.2679   -7.9873    0.6860    1.9885
           2.5954    3.4358    5.0415    5.4410    6.9273    7.3551    8.6969   13.8589   13.8925   15.4615
   18.8469   21.0007   22.7798   23.2209   23.4924   24.9752   25.1760   26.0673   28.4467   29.7134
   30.9258   33.0926   34.8546   42.9303   46.4869   47.4096   51.9794   54.0394   54.1660   58.2611
   59.7361   60.6155   66.6571   67.5684   73.3532   75.5999   78.2808   81.1414   81.8631   86.2554
  103.2839  103.3062
  48  1  -18.5553  -18.0827  -11.5446  -10.8397  -10.6143   -9.0560   -8.2086   -7.8816    0.7320    1.8795
           2.6006    3.2936    5.0012    5.4745    7.0085    7.4221    8.6900   13.7723   13.8736   15.7290
   18.7563   21.0394   22.7537   23.1579   23.4908   25.0519   25.2441   25.8565   28.7772   29.3429
   30.7487   33.4137   34.8271   42.3684   46.5194   47.7057   51.8869   54.2863   54.3449   58.0837
   59.3297   60.2952   66.4157   67.3298   73.2213   75.6748   78.1335   80.8036   81.8918   86.9163
  102.4553  102.7438
  49  1  -18.6090  -18.0703  -11.6198  -10.8294  -10.4923   -9.1214   -8.1466   -7.7690    0.7847    1.7648
           2.5616    3.1649    4.9679    5.5048    7.1159    7.4843    8.6746   13.6937   13.8794   15.9954
   18.6491   21.0824   22.7277   23.0819   23.4646   25.1621   25.3046   25.6560   28.9925   29.0995
   30.5804   33.7072   34.7901   41.7299   46.5587   48.0268   51.7744   54.4048   54.7124   57.9016
   58.9174   59.8991   66.1827   67.0417   73.0542   75.4834   78.2539   80.3504   81.8674   87.7671
  101.6522  102.2645
  50  1  -18.6609  -18.0629  -11.6903  -10.8260  -10.3677   -9.1752   -8.0835   -7.6506    0.8419    1.6455
           2.4556    3.0796    4.9438    5.5327    7.2424    7.5419    8.6492   13.6222   13.9094   16.2592
   18.5261   21.1280   22.7021   22.9963   23.4057   25.2975   25.3062   25.5179   28.6798   29.3910
   30.4410   33.9711   34.7442   41.0345   46.6024   48.3637   51.6379   54.5139   55.1159   57.7228
   58.5331   59.4550   65.9437   66.6769   72.8420   75.1123   78.6009   79.8400   81.7909   88.7854
  100.9793  101.8765
  51  1  -18.7106  -18.0600  -11.7559  -10.8283  -10.2459   -9.2138   -8.0214   -7.5264    0.9009    1.5236
           2.2841    3.0430    4.9306    5.5591    7.3813    7.5953    8.6131   13.5571   13.9623   16.5193
   18.3878   21.1741   22.6741   22.9085   23.3051   25.1321   25.4831   25.5292   28.4207   29.5948
   30.3838   34.2033   34.6899   40.3004   46.6507   48.7078   51.4758   54.6014   55.5116   57.5540
   58.2256   58.9944   65.6818   66.2001   72.5841   74.7115   79.0711   79.3477   81.6668   89.9474
  100.4912  101.5960
  52  1  -18.7005  -18.0574  -11.7324  -10.8280  -10.2795   -9.2099   -8.0341   -7.5663    0.8834    1.5596
           2.3476    3.0519    4.9323    5.5518    7.2902    7.6167    8.6296   13.5122   14.0072   16.4385
   18.4336   21.1627   22.6754   22.9381   23.3531   25.1829   25.4144   25.5333   28.4674   29.5613
   30.4098   34.1161   34.7133   40.5413   46.6310   48.6073   51.4959   54.5726   55.3822   57.4712
   58.4220   59.1344   65.7646   66.3643   72.7264   74.7877   78.6499   79.7860   81.7080   89.5133
  100.1482  102.2066
  53  1  -18.7022  -18.0492  -11.7042  -10.8324  -10.2995   -9.2185   -8.0317   -7.6012    0.8704    1.5858
           2.4059    3.0666    4.9331    5.5472    7.1570    7.6716    8.6511   13.3869   14.1341   16.3682
   18.4732   21.1582   22.6603   22.9740   23.4107   25.1900   25.3579   25.5616   28.4553   29.5467
   30.4958   34.0039   34.7406   40.7617   46.6093   48.5380   51.4412   54.5375   55.2533   57.2601
   58.6725   59.2581   65.8232   66.4899   72.9644   74.7709   78.2137   80.2706   81.7701   89.0532
   99.5486  103.1611
  54  1  -18.7147  -18.0364  -11.6715  -10.8437  -10.3035   -9.2393   -8.0151   -7.6303    0.8621    1.6021
           2.4575    3.0869    4.9335    5.5453    7.0104    7.7326    8.6776   13.2375   14.2873   16.3083
   18.5062   21.1598   22.6338   23.0190   23.4728   25.1575   25.3164   25.6042   28.3908   29.5533
   30.6314   33.8731   34.7673   40.9566   46.5905   48.5005   51.3166   54.4982   55.1381   57.0212
   58.8127   59.4127   65.8557   66.5709   73.2821   74.6792   77.8473   80.6234   81.9441   88.5938
   98.9672  104.1349
  55  1  -18.7362  -18.0205  -11.6348  -10.8619  -10.2915   -9.2706   -7.9864   -7.6532    0.8587    1.6083
           2.5023    3.1112    4.9340    5.5463    6.8586    7.7933    8.7084   13.0823   14.4486   16.2593
   18.5322   21.1660   22.6017   23.0728   23.5360   25.1068   25.2778   25.6509   28.2842   29.5849
   30.8000   33.7288   34.7902   41.1207   46.5795   48.4937   51.1302   54.4556   55.0435   56.7782
   58.7986   59.6133   65.8654   66.6040   73.6273   74.5618   77.5646   80.7519   82.3016   88.1520
   98.4301  105.0684
  56  1  -18.7650  -18.0028  -11.5950  -10.8854  -10.2653   -9.3105   -7.9484   -7.6691    0.8604    1.6045
           2.5406    3.1366    4.9358    5.5500    6.7053    7.8519    8.7428   12.9277   14.6112   16.2224
   18.5508   21.1753   22.5688   23.1341   23.5989   25.0526   25.2340   25.6949   28.1446   29.6441
   30.9861   33.5750   34.8070   41.2481   46.5803   48.5150   50.8924   54.4121   54.9688   56.5391
   58.6724   59.8150   65.8597   66.5894   73.8103   74.6020   77.3681   80.7068   82.7778   87.7363
   97.9389  105.9407
  57  1  -18.7995  -17.9848  -11.5535  -10.9107  -10.2275   -9.3567   -7.9037   -7.6772    0.8673    1.5908
           2.5734    3.1597    4.9396    5.5563    6.5537    7.9077    8.7798   12.7768   14.7706   16.1992
   18.5619   21.1861   22.5381   23.2006   23.6613   25.0010   25.1821   25.7342   27.9799   29.7314
   31.1767   33.4158   34.8159   41.3331   46.5959   48.5608   50.6148   54.3727   54.9054   56.3092
   58.4725   59.9885   65.8477   66.5315   73.6583   74.9639   77.2496   80.5678   83.2861   87.3513
   97.4896  106.7463
  58  1  -18.8382  -17.9676  -11.5126  -10.9340  -10.1812   -9.4070   -7.8553   -7.6763    0.8794    1.5676
           2.6019    3.1765    4.9463    5.5651    6.4070    7.9605    8.8182   12.6317   14.9220   16.1927
   18.5651   21.1968   22.5118   23.2695   23.7242   24.9539   25.1218   25.7691   27.7965   29.8457
   31.3617   33.2556   34.8155   41.3701   46.6274   48.6267   50.3091   54.3428   54.8404   56.0950
   58.2252   60.1246   65.8382   66.4384   73.3584   75.4497   77.1941   80.3734   83.7870   87.0009
   97.0756  107.4896
  59  1  -18.8800  -17.9519  -11.4756  -10.9508  -10.1288   -9.4597   -7.8063   -7.6648    0.8964    1.5352
           2.6266    3.1837    4.9558    5.5759    6.2687    8.0103    8.8568   12.4941   15.0599   16.2073
   18.5604   21.2058   22.4908   23.3369   23.7892   24.9116   25.0537   25.8013   27.5999   29.9843
   31.5313   33.1004   34.8046   41.3549   46.6735   48.7076   49.9858   54.3249   54.7588   55.9062
   57.9547   60.2222   65.8379   66.3204   73.0095   75.9455   77.1843   80.1408   84.2666   86.6915
   96.6892  108.1810
  60  1  -18.9239  -17.9383  -11.4465  -10.9567  -10.0722   -9.5130   -7.7593   -7.6410    0.9183    1.4941
           2.6473    3.1791    4.9673    5.5885    6.1435    8.0572    8.8939   12.3656   15.1778   16.2482
   18.5477   21.2121   22.4753   23.3984   23.8567   24.8734   24.9806   25.8327   27.3957   30.1444
   31.6748   32.9593   34.7825   41.2845   46.7306   48.7983   49.6537   54.3151   54.6459   55.7577
   57.6856   60.2836   65.8494   66.1893   72.6415   76.4038   77.2026   79.8807   84.7203   86.4330
   96.3255  108.8335
  61  1  -18.9692  -17.9271  -11.4291  -10.9478  -10.0129   -9.5655   -7.7156   -7.6045    0.9449    1.4451
           2.6630    3.1622    4.9780    5.6023    6.0365    8.1011    8.9279   12.2477   15.2704   16.3198
   18.5269   21.2153   22.4645   23.4499   23.9234   24.8361   24.9103   25.8657   27.1894   30.3224
   31.7772   32.8465   34.7489   41.1581   46.7926   48.8934   49.3207   54.3011   54.4898   55.6703
   57.4419   60.3131   65.8657   66.0627   72.2691   76.7940   77.2312   79.6010   85.1442   86.2391
   95.9865  109.4592
  62  1  -19.0153  -17.9183  -11.4253  -10.9233   -9.9520   -9.6159   -7.6732   -7.5582    0.9756    1.3887
           2.6708    3.1347    4.9841    5.6168    5.9540    8.1422    8.9575   12.1418   15.3354   16.4229
   18.4978   21.2154   22.4572   23.4886   23.9763   24.7978   24.8568   25.9021   26.9871   30.5145
   31.8208   32.7803   34.7040   40.9769   46.8508   48.9631   49.0195   54.2531   54.2979   55.6637
   57.2437   60.3172   65.8320   66.0001   71.9038   77.0963   77.2495   79.3087   85.5264   86.1312
   95.6834  110.0671
  63  1  -19.0616  -17.9120  -11.4336  -10.8856   -9.8907   -9.6620   -7.6287   -7.5059    1.0100    1.3257
           2.6658    3.1016    4.9809    5.6312    5.9022    8.1801    8.9809   12.0494   15.3754   16.5542
   18.4601   21.2127   22.4518   23.5129   23.9897   24.7783   24.8229   25.9442   26.7953   30.7161
   31.7970   32.7712   34.6487   40.7442   46.8945   48.6693   49.0926   54.0213   54.2137   55.7390
   57.1083   60.3043   65.7139   66.0354   71.5575   77.2314   77.3036   79.0117   85.8141   86.1662
   95.4377  110.6617
  64  1  -19.1079  -17.9082  -11.4509  -10.8395   -9.8324   -9.6997   -7.5801   -7.4504    1.0470    1.2573
           2.6411    3.0705    4.9653    5.6456    5.8841    8.2149    8.9969   11.9716   15.3953   16.7075
   18.4135   21.2081   22.4465   23.5203   23.9378   24.7985   24.8112   25.9937   26.6202   30.9195
   31.7215   32.8088   34.5840   40.4650   46.9102   48.3703   49.1904   53.7278   54.1313   55.8617
   57.0585   60.2849   65.5710   66.1031   71.2444   77.1497   77.4135   78.7266   85.9512   86.3954
   95.2778  111.2423
  65  1  -19.1537  -17.9066  -11.4739  -10.7903   -9.7956   -9.7086   -7.5270   -7.3929    1.0833    1.1866
           2.5902    3.0494    4.9382    5.6604    5.8981    8.2462    9.0044   11.9096   15.4004   16.8763
   18.3573   21.2026   22.4399   23.5030   23.8246   24.7779   24.9009   26.0526   26.4679   31.1065
   31.6317   32.8717   34.5117   40.1456   46.8830   48.0995   49.2921   53.4064   54.0432   55.9630
   57.1318   60.2713   65.4111   66.1846   70.9802   76.9800   77.4127   78.4939   86.0621   86.6817
   95.2338  111.8039
  66  1  -19.1987  -17.9071  -11.5001  -10.7426   -9.8057   -9.6620   -7.4703   -7.3333    1.0806    1.1519
           2.5116    3.0414    4.9036    5.6763    5.9388    8.2736    9.0025   11.8640   15.3947   17.0555
   18.2906   21.1971   22.4311   23.4331   23.6955   24.7583   25.0290   26.1206   26.3448   31.2124
   31.6064   32.9436   34.4335   39.7929   46.7993   47.8694   49.4006   53.0690   53.9616   55.9828
   57.3497   60.2772   65.2252   66.2752   70.7803   76.7056   77.2877   78.3636   86.1951   86.9581
   95.3313  112.3381
  67  1  -19.2427  -17.9095  -11.5279  -10.7000   -9.8279   -9.5928   -7.4122   -7.2703    1.0056    1.1861
           2.4094    3.0446    4.8673    5.6928    5.9999    8.2967    8.9909   11.8353   15.3811   17.2409
   18.2124   21.1923   22.4192   23.2704   23.6091   24.7383   25.1759   26.1754   26.2779   31.1647
   31.7250   33.0158   34.3513   39.4140   46.6553   47.6855   49.5184   52.7240   53.8950   55.9196
   57.6738   60.3171   65.0035   66.3704   70.6574   76.3280   77.0800   78.3285   86.3300   87.2269
   95.5857  112.8342
  68  1  -19.2855  -17.9135  -11.5561  -10.6655   -9.8472   -9.5149   -7.3555   -7.2023    0.9179    1.2295
           2.2899    3.0551    4.8341    5.7092    6.0760    8.3151    8.9699   11.8234   15.3615   17.4290
   18.1216   21.1891   22.4043   23.0407   23.5541   24.7169   25.3268   26.1445   26.3436   31.0451
   31.9069   33.0851   34.2669   39.0160   46.4641   47.5399   49.6472   52.3767   53.8478   55.7995
   58.0388   60.4043   64.7413   66.4589   70.6205   75.8837   76.8505   78.3400   86.4253   87.5168
   95.9996  113.2804
  69  1  -19.3268  -17.9190  -11.5838  -10.6405   -9.8611   -9.4304   -7.3026   -7.1279    0.8253    1.2736
           2.1588    3.0696    4.8079    5.7250    6.1628    8.3282    8.9402   11.8278   15.3371   17.6157
   18.0185   21.1875   22.3865   22.7838   23.5028   24.6931   25.4689   26.1092   26.4635   30.9103
   32.0934   33.1520   34.1819   38.6056   46.2493   47.4165   49.7876   52.0303   53.8212   55.6422
   58.3899   60.5472   64.4418   66.5193   70.6761   75.4308   76.6306   78.3658   86.4383   87.8638
   96.5629  113.6644
  70  1  -19.3665  -17.9256  -11.6107  -10.6254   -9.8695   -9.3399   -7.2550   -7.0470    0.7294    1.3164
           2.0212    3.0856    4.7913    5.7397    6.2570    8.3352    8.9028   11.8476   15.3089   17.7785
   17.9218   21.1874   22.3660   22.5208   23.4464   24.6666   25.5902   26.1041   26.6062   30.7764
   32.2638   33.2198   34.0975   38.1888   46.0329   47.3020   49.9393   51.6869   53.8136   55.4614
   58.6912   60.7420   64.1153   66.5218   70.8295   75.0235   76.4383   78.3932   86.3454   88.2907
   97.2560  113.9746
  71  1  -19.4045  -17.9331  -11.6363  -10.6194   -9.8733   -9.2441   -7.2127   -6.9608    0.6310    1.3557
           1.8822    3.1017    4.7859    5.7527    6.3560    8.3355    8.8595   11.8818   15.2772   17.7279
   18.0182   21.1878   22.2619   22.3465   23.3826   24.6369   25.6801   26.1371   26.7654   30.6497
   32.4061   33.2931   34.0150   37.7714   45.8307   47.1890   50.1006   51.3484   53.8200   55.2698
   58.9292   60.9664   63.7748   66.4420   71.0762   74.7028   76.2914   78.4191   86.1439   88.8031
   98.0520  114.2015
  72  1  -19.4405  -17.9413  -11.6603  -10.6209   -9.8736   -9.1441   -7.1753   -6.8709    0.5312    1.3868
           1.7485    3.1167    4.7924    5.7639    6.4577    8.3284    8.8119   11.9289   15.2426   17.5751
   18.1943   21.1867   22.0237   22.3235   23.3117   24.6038   25.7367   26.2074   26.9349   30.5340
   32.5124   33.3748   33.9361   37.3586   45.6536   47.0742   50.2651   51.0210   53.8312   55.0822
   59.1077   61.1848   63.4326   66.2791   71.3853   74.4993   76.2077   78.4456   85.8419   89.3980
   98.9190  114.3386
  73  1  -19.4746  -17.9499  -11.6827  -10.6282   -9.8714   -9.0414   -7.1424   -6.7792    0.4309    1.3963
           1.6359    3.1301    4.8112    5.7729    6.5606    8.3130    8.7622   11.9879   15.2052   17.3987
   18.3705   21.1799   21.8126   22.3018   23.2346   24.5677   25.7699   26.3035   27.1081   30.4323
   32.5802   33.4612   33.8646   36.9557   45.5091   46.9566   50.3893   50.7464   53.8307   54.9192
   59.2357   61.3624   63.0963   66.0642   71.6830   74.4491   76.2006   78.4772   85.4524   90.0690
   99.8198  114.3852
  74  1  -19.5066  -17.9587  -11.7032  -10.6395   -9.8678   -8.9375   -7.1136   -6.6874    0.3312    1.3510
           1.5791    3.1416    4.8420    5.7792    6.6632    8.2892    8.7121   12.0572   15.1650   17.2050
   18.5412   21.1604   21.6402   22.2820   23.1528   24.5287   25.7911   26.4124   27.2781   30.3469
   32.6130   33.5358   33.8122   36.5679   45.4022   46.8364   50.2474   50.7480   53.7945   54.8084
   59.3188   61.4759   62.7693   65.8495   71.8647   74.5984   76.2722   78.5199   84.9915   90.8073
  100.7117  114.3480
  75  1  -19.5364  -17.9676  -11.7218  -10.6534   -9.8634   -8.8343   -7.0885   -6.5971    0.2333    1.2526
           1.5784    3.1510    4.8838    5.7824    6.7645    8.2569    8.6632   12.1355   15.1218   16.9986
   18.7041   21.1189   21.5171   22.2649   23.0680   24.4874   25.8070   26.5256   27.4395   30.2797
   32.6175   33.5635   33.8064   36.2013   45.3359   46.7148   49.9420   50.9188   53.7035   54.7720
   59.3580   61.5068   62.4664   65.6854   71.8647   74.9536   76.4111   78.5807   84.4790   91.6014
  101.5455  114.2443
  76  1  -19.5640  -17.9763  -11.7383  -10.6684   -9.8586   -8.7334   -7.0669   -6.5100    0.1386    1.1397
           1.5967    3.1585    4.9356    5.7820    6.8631    8.2171    8.6161   12.2215   15.0753   16.7850
   18.8574   21.0548   21.4434   22.2517   22.9822   24.4446   25.8207   26.6377   27.5881   30.2319
   32.5998   33.5337   33.8497   35.8632   45.3116   46.5935   49.6157   51.1095   53.5627   54.8081
   59.3529   61.4086   62.2525   65.6000   71.7004   75.4458   76.5964   78.6667   83.9374   92.4378
  102.2653  114.1033
  77  1  -19.5892  -17.9846  -11.7528  -10.6838   -9.8536   -8.6369   -7.0485   -6.4274    0.0485    1.0294
           1.6184    3.1643    4.9957    5.7775    6.9580    8.1716    8.5713   12.3137   15.0245   16.5710
   18.9992   20.9830   21.4024   22.2430   22.8973   24.4013   25.8332   26.7450   27.7214   30.2037
   32.5652   33.4808   33.8995   35.5629   45.3297   46.4747   49.2845   51.2962   53.3955   54.8964
   59.3057   61.1366   62.2078   65.5953   71.4197   75.9809   76.8088   78.7826   83.3928   93.3015
  102.8120  113.9646
  78  1  -19.6120  -17.9923  -11.7652  -10.6986   -9.8485   -8.5463   -7.0331   -6.3509   -0.0354    0.9272
           1.6395    3.1686    5.0625    5.7682    7.0478    8.1228    8.5284   12.4103   14.9683   16.3647
   19.1277   20.9200   21.3750   22.2392   22.8155   24.3584   25.8448   26.8439   27.8386   30.1939
   32.5180   33.4244   33.9273   35.3126   45.3887   46.3612   48.9507   51.4663   53.2263   55.0165
   59.2238   60.7586   62.3016   65.6593   71.0582   76.4691   77.0513   78.9256   82.8739   94.1773
[...]
   59.4681   61.0033   64.4234   66.7387   70.5760   72.4456   81.3858   86.2389   88.9522   96.8787
  102.7073  119.3495
 326  1  -19.8209  -18.6758  -11.3437  -10.1108   -8.9409   -7.9439   -6.7770   -6.4558   -0.6639    0.8710
           2.2417    3.1394    4.6241    5.1411    6.2828    7.3785    9.6185   11.9308   14.7649   17.2153
   17.7423   19.3142   21.5845   22.9963   23.6621   24.3577   25.3587   26.8017   29.1899   31.6500
   33.3787   34.5487   35.5497   36.8250   41.0225   45.3747   47.3023   49.8312   51.4873   56.2714
   59.3431   61.1328   64.4975   66.6443   71.2225   72.5275   82.1926   86.4530   89.2228   96.9514
  103.1441  118.3306
 327  1  -19.9188  -18.7409  -11.2509   -9.9370   -8.9234   -7.8374   -6.6838   -6.4122   -0.7078    0.8689
           2.2303    3.1261    4.6117    5.1781    6.2256    7.3095    9.6704   11.9322   14.7013   17.2340
   17.7029   19.3031   21.4926   22.8846   23.6466   24.2679   25.4308   26.7948   28.9383   31.3238
   33.4164   34.6646   35.4366   37.1016   40.5669   45.3834   47.3502   49.5601   51.3413   56.1735
   59.2205   61.2615   64.4967   66.6279   71.7933   72.7274   83.0359   86.4301   89.6695   96.9929
  103.5205  117.1874
 328  1  -20.0150  -18.8073  -11.1679   -9.7603   -8.8879   -7.7275   -6.5931   -6.3674   -0.7519    0.8597
           2.2261    3.1129    4.5995    5.2073    6.1682    7.2366    9.7360   11.9401   14.6455   17.2495
   17.6596   19.2810   21.3951   22.7163   23.6494   24.1637   25.5199   26.7808   28.6226   31.0170
   33.4596   34.6746   35.3432   37.4387   40.1309   45.4630   47.4148   49.2661   51.2565   55.9832
   59.1319   61.3617   64.4001   66.7136   72.0836   73.2075   83.8634   86.3045   90.2805   96.9989
  103.8175  116.0085
 329  1  -20.1091  -18.8745  -11.0975   -9.5813   -8.8319   -7.6154   -6.5076   -6.3186   -0.7964    0.8414
           2.2304    3.1012    4.5876    5.2289    6.1091    7.1600    9.8167   11.9561   14.5988   17.2617
   17.6146   19.2458   21.2919   22.5106   23.6571   24.0478   25.6177   26.7427   28.2799   30.7565
   33.4623   34.5671   35.2754   37.8230   39.7376   45.5737   47.4811   48.9596   51.2502   55.7031
   59.0883   61.4159   64.2380   66.8812   72.1478   73.8612   84.4613   86.3981   91.0138   96.9865
  104.0239  114.8874
 330  1  -20.2007  -18.9419  -11.0417   -9.4006   -8.7542   -7.5021   -6.4314   -6.2619   -0.8416    0.8120
           2.2445    3.0924    4.5759    5.2439    6.0476    7.0796    9.9131   11.9817   14.5617   17.2710
   17.5701   19.1954   21.1824   22.2827   23.6586   23.9247   25.7136   26.6569   27.9639   30.5384
   33.3970   34.3870   35.2004   38.1838   39.4541   45.6543   47.5126   48.7025   51.3317   55.3403
   59.0910   61.4105   64.0669   67.0913   72.1146   74.4955   84.5494   87.0775   91.8340   97.0063
  104.1428  113.9044
 331  1  -20.2894  -19.0089  -11.0012   -9.2185   -8.6555   -7.3886   -6.3677   -6.1940   -0.8879    0.7701
           2.2691    3.0876    4.5643    5.2529    5.9830    6.9958   10.0253   12.0188   14.5348   17.2775
   17.5282   19.1277   21.0653   22.0433   23.6390   23.8074   25.7866   26.5085   27.7265   30.3515
   33.2447   34.1787   35.0938   38.3207   39.4665   45.6399   47.4082   48.6439   51.4961   54.9042
   59.1367   61.3391   63.9368   67.3119   72.0209   74.9963   84.3847   88.1471   92.6941   97.1614
  104.1994  113.1097
 332  1  -20.3751  -19.0751  -10.9755   -9.0350   -8.5380   -7.2757   -6.3151   -6.1160   -0.9356    0.7149
           2.3048    3.0878    4.5526    5.2569    5.9154    6.9089   10.1528   12.0691   14.5179   17.2810
   17.4910   19.0412   20.9390   21.8007   23.5642   23.7307   25.7781   26.3505   27.5831   30.1861
   32.9978   33.9630   34.9523   38.1544   39.8313   45.4927   47.1357   48.8568   51.7246   54.4075
   59.2166   61.2135   63.8744   67.5230   71.8781   75.2740   84.2694   89.3268   93.5245   97.6144
  104.2395  112.5199
 333  1  -20.4575  -19.1399  -10.9631   -8.8501   -8.4049   -7.1642   -6.2690   -6.0320   -0.9852    0.6464
           2.3514    3.0938    4.5407    5.2565    5.8455    6.8196   10.2942   12.1344   14.5110   17.2817
   17.4601   18.9352   20.8016   21.5610   23.4356   23.6950   25.5984   26.3019   27.5065   30.0360
   32.6617   33.7431   34.7840   37.8701   40.3325   45.2165   46.8097   49.2403   51.9841   53.8729
   59.3079   61.0733   63.8817   67.7131   71.6947   75.2709   84.3277   90.4331   94.3107   98.5119
  104.3212  112.1292
 334  1  -20.5364  -19.2031  -10.9620   -8.6644   -8.2602   -7.0549   -6.2252   -5.9459   -1.0371    0.5653
           2.4080    3.1060    4.5284    5.2513    5.7751    6.7285   10.4482   12.2164   14.5139   17.2794
   17.4366   18.8096   20.6524   21.3285   23.2878   23.6667   25.2972   26.3441   27.4630   29.8984
   32.2499   33.5184   34.6008   37.5393   40.8620   44.8534   46.5060   49.7028   52.2021   53.3632
   59.3630   60.9877   63.9462   67.8757   71.4802   74.9912   84.5783   91.2857   95.2025   99.8474
  104.5049  111.9252
 335  1  -20.6115  -19.2642  -10.9699   -8.4789   -8.1073   -6.9484   -6.1805   -5.8601   -1.0916    0.4726
           2.4736    3.1245    4.5159    5.2404    5.7071    6.6367   10.6129   12.3160   14.5266   17.2746
   17.4204   18.6658   20.4919   21.1061   23.1305   23.6352   24.9612   26.4052   27.4310   29.7723
   31.7799   33.2914   34.4136   37.1634   41.3821   44.4643   46.2423   50.1911   52.1402   53.1116
   59.3190   61.0359   64.0521   68.0060   71.2452   74.4983   84.9716   91.7962   96.3577  101.4834
  104.8516  111.8988
 336  1  -20.6827  -19.3228  -10.9846   -8.2957   -7.9491   -6.8455   -6.1327   -5.7760   -1.1491    0.3697
           2.5468    3.1494    4.5032    5.2213    5.6458    6.5448   10.7867   12.4338   14.5493   17.2672
   17.4105   18.5062   20.3229   20.8948   22.9615   23.5984   24.6273   26.4503   27.3997   29.6586
   31.2751   33.0672   34.2296   36.7343   41.8748   44.1033   46.0160   50.6623   51.6786   53.2476
   59.1544   61.2466   64.1866   68.1002   71.0004   73.8780   85.4391   92.0413   97.7532  103.2441
  105.4322  112.0442
 337  1  -20.7499  -19.3788  -11.0043   -8.1180   -7.7871   -6.7466   -6.0798   -5.6945   -1.2099    0.2582
           2.6260    3.1802    4.4907    5.1908    5.5962    6.4539   10.9681   12.5690   14.5827   17.2564
   17.4054   18.3353   20.1492   20.6941   22.7723   23.5559   24.3144   26.4521   27.3670   29.5584
   30.7660   32.8494   34.0528   36.2535   42.3285   43.8033   45.8233   50.8608   51.3343   53.4931
   58.9038   61.5839   64.3397   68.1544   70.7556   73.2062   85.9324   92.1367   99.2863  104.9037
  106.3643  112.3558
 338  1  -20.8129  -19.4318  -11.0272   -7.9499   -7.6218   -6.6521   -6.0206   -5.6166   -1.2739    0.1396
           2.7094    3.2164    4.4787    5.1467    5.5622    6.3648   11.1561   12.7198   14.6282   17.2385
   17.4029   18.1606   19.9756   20.5032   22.5508   23.5083   24.0372   26.3791   27.3384   29.4725
   30.2899   32.6389   33.8849   35.7366   42.7308   43.5800   45.6619   50.3186   51.6791   53.7393
   58.6072   62.0009   64.5045   68.1654   70.5183   72.5377   86.4352   92.1596  100.8707  106.2531
  107.7392  112.8234
 339  1  -20.8716  -19.4817  -11.0520   -7.7959   -7.4529   -6.5623   -5.9538   -5.5427   -1.3413    0.0157
           2.7951    3.2571    4.4680    5.0900    5.5445    6.2784   11.3502   12.8826   14.6883   17.2051
   17.3992   17.9957   19.8061   20.3207   22.2870   23.4560   23.8065   26.2009   27.3209   29.3986
   29.8868   32.4334   33.7270   35.2095   43.0409   43.4656   45.5313   49.6951   52.0835   53.9599
   58.2901   62.4625   64.6758   68.1325   70.2918   71.9070   86.9564   92.1670  102.4398  107.4284
  109.2959  113.4267
 340  1  -20.9259  -19.5281  -11.0775   -7.6599   -7.2806   -6.4773   -5.8790   -5.4733   -1.4117   -0.1116
           2.8811    3.3014    4.4591    5.0245    5.5407    6.1956   11.5503   13.0519   14.7665   17.1405
   17.3879   17.8637   19.6446   20.1451   21.9800   23.3999   23.6246   25.9055   27.3144   29.3269
   29.5943   32.2287   33.5793   34.7023   43.1194   43.5850   45.4331   49.0913   52.4620   54.1468
   57.9674   62.9437   64.8502   68.0597   70.0738   71.3325   87.5131   92.2217  103.9405  108.5742
  110.7729  114.1283
 341  1  -20.9757  -19.5709  -11.1029   -7.5432   -7.1066   -6.3974   -5.7966   -5.4089   -1.4846   -0.2405
           2.9654    3.3479    4.4530    4.9548    5.5473    6.1171   11.7566   13.2205   14.8675   17.0252
   17.3632   17.7901   19.4942   19.9746   21.6396   23.3408   23.4850   25.5066   27.3125   29.2378
   29.4383   32.0196   33.4422   34.2426   43.0547   43.8359   45.3716   48.5267   52.8063   54.2975
   57.6488   63.4264   65.0260   67.9565   69.8560   70.8212   88.1069   92.4139  105.3336  109.6795
  112.0868  114.8714
 342  1  -21.0209  -19.6101  -11.1273   -7.4455   -6.9336   -6.3229   -5.7076   -5.3499   -1.5593   -0.3689
           3.0460    3.3951    4.4504    4.8848    5.5611    6.0438   11.9697   13.3804   14.9959   16.8540
   17.3280   17.7772   19.3574   19.8070   21.2818   23.2798   23.3772   25.0354   27.3109   29.1560
   29.3800   31.8033   33.3158   33.8507   42.9681   44.0871   45.3523   48.0098   53.1139   54.4119
   57.3414   63.8974   65.2023   67.8368   69.6271   70.3717   88.6948   92.8828  106.5977  110.6915
  113.2187  115.5925
 343  1  -21.0615  -19.6453  -11.1502   -7.3652   -6.7650   -6.2544   -5.6140   -5.2965   -1.6348   -0.4947
           3.1209    3.4417    4.4520    4.8174    5.5797    5.9762   12.1900   13.5238   15.1549   16.6414
   17.2870   17.8055   19.2361   19.6405   20.9234   23.2180   23.2914   24.5272   27.3099   29.1174
   29.3586   31.5818   33.1999   33.5352   42.8692   44.3284   45.3785   47.5430   53.3845   54.4909
   57.0511   64.3479   65.3797   67.7153   69.3786   69.9757   89.1907   93.8099  107.7277  111.5646
  114.1527  116.2449
 344  1  -21.0973  -19.6767  -11.1711   -7.3001   -6.6044   -6.1925   -5.5184   -5.2490   -1.7095   -0.6154
           3.1887    3.4858    4.4582    4.7549    5.6010    5.9150   12.4177   13.6459   15.3425   16.4060
   17.2418   17.8567   19.1314   19.4737   20.5805   23.1552   23.2199   24.0137   27.3129   29.1193
   29.3523   31.3638   33.0945   33.2928   42.7568   44.5685   45.4486   47.1244   53.6181   54.5354
   56.7828   64.7725   65.5597   67.6044   69.1109   69.6179   89.5401   95.3345  108.7310  112.2733
  114.8617  116.8103
 345  1  -21.1285  -19.7040  -11.1898   -7.2478   -6.4551   -6.1377   -5.4241   -5.2076   -1.7818   -0.7284
           3.2482    3.5259    4.4686    4.6987    5.6232    5.8608   12.6528   13.7449   15.5411   16.1722
   17.1930   17.9180   19.0436   19.3075   20.2664   23.0827   23.1581   23.5285   27.3231   29.1487
   29.3536   31.1604   32.9997   33.1124   42.6362   44.8097   45.5593   46.7512   53.8156   54.5474
   56.5411   65.1688   65.7443   67.5122   68.8325   69.2804   89.7675   97.4928  109.6227  112.8098
  115.3218  117.2887
 346  1  -21.1548  -19.7272  -11.2059   -7.2063   -6.3206   -6.0907   -5.3349   -5.1725   -1.8494   -0.8310
           3.2987    3.5609    4.4823    4.6501    5.6449    5.8141   12.8949   13.8224   15.6442   16.0462
   17.1423   17.9767   18.9720   19.1465   19.9919   22.9137   23.1043   23.1777   27.3419   29.1941
   29.3587   30.9813   32.9162   32.9802   42.5183   45.0363   45.7107   46.4251   53.9781   54.5303
   56.3303   65.5365   65.9354   67.4426   68.5533   68.9501   89.9225  100.2448  110.4220  113.1828
  115.5290  117.6796
 347  1  -21.1764  -19.7462  -11.2193   -7.1741   -6.2043   -6.0517   -5.2546   -5.1438   -1.9100   -0.9203
           3.3398    3.5899    4.4978    4.6097    5.6647    5.7752   13.1428   13.8811   15.4760   16.1995
   17.0927   18.0156   18.9154   19.0022   19.7644   22.5551   23.0580   23.0712   27.3681   29.2464
   29.3654   30.8323   32.8459   32.8835   42.4144   45.2204   45.8730   46.1809   54.1072   54.4900
   56.1537   65.8765   66.1340   67.3957   68.2806   68.6225   90.0376  103.4735  111.1491  113.4168
  115.5035  117.9685
 348  1  -21.1932  -19.7610  -11.2299   -7.1498   -6.1096   -6.0212   -5.1871   -5.1216   -1.9609   -0.9935
           3.3716    3.6124    4.5130    4.5781    5.6814    5.7446   13.3939   13.9239   15.2161   16.4464
   17.0481   18.0110   18.8722   18.8940   19.5882   22.2079   23.0203   23.0249   27.3979   29.2980
   29.3720   30.7154   32.7910   32.8127   42.3326   45.3494   45.8110   46.2387   54.2048   54.4361
   56.0143   66.1891   66.3383   67.3702   68.0197   68.3003   90.1268  106.9345  111.8207  113.5493
  115.2847  118.1195
 349  1  -21.2051  -19.7716  -11.2375   -7.1328   -6.0394   -5.9992   -5.1360   -5.1058   -1.9995   -1.0480
           3.3941    3.6285    4.5258    4.5554    5.6940    5.7224   13.6418   13.9530   14.9493   16.6939
   17.0127   17.9478   18.8357   18.8420   19.4645   21.9340   22.9928   22.9948   27.4255   29.3419
   29.3775   30.6312   32.7525   32.7629   42.2762   45.4313   45.6451   46.4407   54.2727   54.3816
   55.9138   66.4700   66.5406   67.3668   67.7785   67.9925   90.1931  110.2124  112.4442  113.6310
  114.9271  118.0756
 350  1  -21.2123  -19.7780  -11.2420   -7.1226   -5.9961   -5.9860   -5.1040   -5.0963   -2.0237   -1.0817
           3.4075    3.6381    4.5343    4.5418    5.7019    5.7091   13.8645   13.9699   14.7120   16.8962
   16.9898   17.8514   18.8185   18.8230   19.3922   21.7578   22.9761   22.9767   27.4450   29.3717
   29.3811   30.5801   32.7300   32.7327   42.2442   45.4767   45.5311   46.5934   54.3126   54.3409
   55.8533   66.6960   66.7155   67.3981   67.5793   67.7163   90.2347  112.6501  112.9954  113.8004
  114.5101  117.8013
 351  1  -21.2147  -19.7801  -11.2436   -7.1192   -5.9815   -5.9815   -5.0931   -5.0931   -2.0320   -1.0930
           3.4119    3.6412    4.5373    4.5373    5.7046    5.7046   13.9755   13.9755   14.5957   16.9819
   16.9819   17.7992   18.8166   18.8166   19.3686   21.6969   22.9706   22.9706   27.4521   29.3823
   29.3823   30.5629   32.7226   32.7226   42.2339   45.4913   45.4913   46.6490   54.3258   54.3258
   55.8330   66.7946   66.7946   67.4898   67.4898   67.5218   90.2489  113.2873  113.2873  114.2577
  114.2578  117.5540

siesta: Program's energy decomposition (eV):
siesta: Ebs     =      -180.402095
siesta: Eions   =      1038.575291
siesta: Ena     =       180.562379
siesta: Ekin    =       432.022393
siesta: Enl     =       -52.975904
siesta: Eso     =         0.000000
siesta: Edftu   =         0.000000
siesta: DEna    =        -0.331908
siesta: DUscf   =         0.753936
siesta: DUext   =         0.000000
siesta: Exc     =      -181.535831
siesta: eta*DQ  =         0.000000
siesta: Emadel  =         0.000000
siesta: Emeta   =         0.000000
siesta: Emolmec =         0.000000
siesta: Ekinion =         0.000000
siesta: Eharris =      -660.080226
siesta: Etot    =      -660.080226
siesta: FreeEng =      -660.080226

siesta: Final energy (eV):
siesta:  Band Struct. =    -180.402095
siesta:       Kinetic =     432.022393
siesta:       Hartree =     153.024841
siesta:       Edftu   =       0.000000
siesta:       Eso     =       0.000000
siesta:    Ext. field =       0.000000
siesta:   Exch.-corr. =    -181.535831
siesta:  Ion-electron =    -681.091362
siesta:       Ion-ion =    -382.500268
siesta:       Ekinion =       0.000000
siesta:         Total =    -660.080226
siesta:         Fermi =      -3.981638

siesta: Atomic forces (eV/Ang):
siesta:      1   -0.000000   -0.000000    0.060454
siesta:      2   -0.000000    0.000000   -0.055379
siesta:      3    0.000000    0.000000    0.060454
siesta:      4    0.000000   -0.000000   -0.055379
siesta: ----------------------------------------
siesta:    Tot   -0.000000    0.000000    0.010150

siesta: Stress tensor (static) (eV/Ang**3):
siesta:    -0.304848   -0.000000   -0.000000
siesta:    -0.000000   -0.304848    0.000000
siesta:    -0.000000    0.000000   -0.301800

siesta: Cell volume =         46.124066 Ang**3

siesta: Pressure (static):
siesta:                Solid            Molecule  Units
siesta:           0.00330912          0.00331507  Ry/Bohr**3
siesta:           0.30383222          0.30437816  eV/Ang**3
siesta:         486.79814943        487.67285295  kBar
(Free)E+ p_basis*V_orbitals  =        -657.843758
(Free)Eharris+ p_basis*V_orbitals  =        -657.843758

cite: Please see "siesta.bib" for an exhaustive BiBTeX file.
cite: Please clearly indicate Siesta version in published work: 4.1.5
cite: This calculation has made use of the following articles
cite: which are encouraged to be cited in a published work.
        Primary SIESTA paper
          DOI: www.doi.org/10.1088/0953-8984/14/11/302


timer: Elapsed wall time (sec) =      75.113
timer: CPU execution times (sec):

Routine            Calls   Time/call    Tot.time        %
siesta                 1      74.854      74.854   100.00
Setup                  1       0.254       0.254     0.34
bands                  3       0.189       0.568     0.76
KSV_init               1       0.000       0.000     0.00
IterGeom               1      73.952      73.952    98.79
state_init             1       0.861       0.861     1.15
hsparse                1       0.040       0.040     0.05
overlap                1       0.787       0.787     1.05
Setup_H0               1       6.475       6.475     8.65
naefs                  2       0.000       0.001     0.00
MolMec                 2       0.000       0.000     0.00
kinefsm                2       0.401       0.803     1.07
nlefsm                 2       2.301       4.601     6.15
DHSCF_Init             1       1.372       1.372     1.83
DHSCF1                 1       0.049       0.049     0.07
INITMESH               1       0.000       0.000     0.00
DHSCF2                 1       1.323       1.323     1.77
REMESH                 1       0.308       0.308     0.41
REORD                 26       0.000       0.002     0.00
PHION                  1       0.936       0.936     1.25
COMM_BSC              39       0.000       0.002     0.00
POISON                10       0.002       0.022     0.03
fft                   20       0.001       0.015     0.02
IterSCF                7       9.130      63.908    85.38
setup_H                8       0.713       5.704     7.62
DHSCF                  9       0.898       8.081    10.80
DHSCF3                 9       0.713       6.415     8.57
rhoofd                 9       0.417       3.751     5.01
XC                     9       0.009       0.078     0.10
GXC-CellXC             9       0.009       0.077     0.10
cellXC                 9       0.009       0.077     0.10
vmat                   9       0.284       2.559     3.42
compute_dm             7       8.314      58.195    77.74
diagon                 7       8.313      58.193    77.74
c-eigval           12167       0.002      19.162    25.60
c-buildHS          12167       0.001      14.640    19.56
cdiag              23983       0.001      15.281    20.41
cdiag1             23983       0.000       1.000     1.34
cdiag2             23983       0.000       2.503     3.34
cdiag3             23983       0.000      11.350    15.16
c-eigvec           11816       0.002      25.033    33.44
cdiag4             11816       0.000       0.270     0.36
c-buildD           11816       0.001      14.492    19.36
MIXER                  6       0.001       0.003     0.00
PostSCF                1       2.707       2.707     3.62
DHSCF4                 1       1.666       1.666     2.23
dfscf                  1       1.581       1.581     2.11
overfsm                1       0.025       0.025     0.03
state_analysis         1       0.000       0.000     0.00
siesta_move            1       0.000       0.000     0.00
Analysis               1       0.646       0.646     0.86
siesta_analysis        1       0.646       0.646     0.86
optical                1       0.000       0.000     0.00
  
>> End of run:  28-AUG-2024  10:21:16
Job completed
