Siesta Version  : 4.1.5
Architecture    : x86_64
Compiler version: GNU Fortran (GCC) 13.2.1 20240316 (Red Hat 13.2.1-7)
Compiler flags  : gfortran -O2 -fPIC -ftree-vectorize -fallow-argument-mismatch
PP flags        : -DFC_HAVE_ABORT -DCDF -DNCDF -DNCDF_4 -DSIESTA__DIAG_2STAGE -DSIESTA__MRRR
Libraries       : libsiestaLAPACK.a libsiestaBLAS.a libncdf.a libfdict.a -lnetcdff -lnetcdf -lhhdf5_hl -lhdf5 -lz
SERIAL version
NetCDF support
NetCDF-4 support

* Running in serial mode
>> Start of run:  29-AUG-2024  11:40:30

                           ***********************       
                           *  WELCOME TO SIESTA  *       
                           ***********************       

reinit: Reading from siesta.fdf

reinit: -----------------------------------------------------------------------
reinit: System Name: 
reinit: -----------------------------------------------------------------------
reinit: System Label: siesta
reinit: -----------------------------------------------------------------------

initatom: Reading input for the pseudopotentials and atomic orbitals ----------
Species number:   1 Atomic number:   14 Label: Si

Ground state valence configuration:   3s02  3p02
Reading pseudopotential information in formatted form from Si.psf

Valence configuration for pseudopotential generation:
3s( 2.00) rc: 1.77
3p( 2.00) rc: 1.96
3d( 0.00) rc: 2.11
4f( 0.00) rc: 2.11
For Si, standard SIESTA heuristics set lmxkb to 3
 (one more than the basis l, including polarization orbitals).
Use PS.lmax or PS.KBprojectors blocks to override.

<basis_specs>
===============================================================================
Si                   Z=  14    Mass=  28.090        Charge= 0.17977+309
Lmxo=1 Lmxkb= 3    BasisType=split      Semic=F
L=0  Nsemic=0  Cnfigmx=3
          i=1  nzeta=2  polorb=0  (3s)
            splnorm:   0.15000    
               vcte:    0.0000    
               rinn:    0.0000    
               qcoe:    0.0000    
               qyuk:    0.0000    
               qwid:   0.10000E-01
                rcs:    0.0000      0.0000    
            lambdas:    1.0000      1.0000    
L=1  Nsemic=0  Cnfigmx=3
          i=1  nzeta=2  polorb=1  (3p)
            splnorm:   0.15000    
               vcte:    0.0000    
               rinn:    0.0000    
               qcoe:    0.0000    
               qyuk:    0.0000    
               qwid:   0.10000E-01
                rcs:    0.0000      0.0000    
            lambdas:    1.0000      1.0000    
-------------------------------------------------------------------------------
L=0  Nkbl=1  erefs: 0.17977+309
L=1  Nkbl=1  erefs: 0.17977+309
L=2  Nkbl=1  erefs: 0.17977+309
L=3  Nkbl=1  erefs: 0.17977+309
===============================================================================
</basis_specs>

atom: Called for Si                    (Z =  14)

read_vps: Pseudopotential generation method:
read_vps: ATM 3.2.2 Troullier-Martins                       
Valence charge for ps generation:    4.00000

xc_check: Exchange-correlation functional:
xc_check: GGA Perdew, Burke & Ernzerhof 1996
V l=0 = -2*Zval/r beyond r=  1.7304
V l=1 = -2*Zval/r beyond r=  1.9124
V l=2 = -2*Zval/r beyond r=  2.0613
V l=3 = -2*Zval/r beyond r=  2.0613
All V_l potentials equal beyond r=  2.0613
This should be close to max(r_c) in ps generation
All pots = -2*Zval/r beyond r=  2.0613

VLOCAL1: 99.0% of the norm of Vloc inside     10.216 Ry
VLOCAL1: 99.9% of the norm of Vloc inside     23.282 Ry
atom: Maximum radius for 4*pi*r*r*local-pseudopot. charge    2.45560
atom: Maximum radius for r*vlocal+2*Zval:    2.14012
GHOST: No ghost state for L =  0
GHOST: No ghost state for L =  1
GHOST: No ghost state for L =  2
GHOST: No ghost state for L =  3

KBgen: Kleinman-Bylander projectors: 
   l= 0   rc=  2.278153   el= -0.795700   Ekb=  4.691105   kbcos=  0.294879
   l= 1   rc=  2.306811   el= -0.300424   Ekb=  1.499986   kbcos=  0.307489
   l= 2   rc=  2.335829   el=  0.001958   Ekb= -2.261682   kbcos= -0.053994
   l= 3   rc=  2.425092   el=  0.003046   Ekb= -0.701404   kbcos= -0.005423

KBgen: Total number of Kleinman-Bylander projectors:   16
atom: -------------------------------------------------------------------------

atom: SANKEY-TYPE ORBITALS:
atom: Selected multiple-zeta basis: split     

SPLIT: Orbitals with angular momentum L= 0

SPLIT: Basis orbitals for state 3s

SPLIT: PAO cut-off radius determined from an
SPLIT: energy shift=  0.020000 Ry

   izeta = 1
                 lambda =    1.000000
                     rc =    5.007352
                 energy =   -0.777294
                kinetic =    0.584191
    potential(screened) =   -1.361484
       potential(ionic) =   -3.822397

   izeta = 2
                 rmatch =    4.418952
              splitnorm =    0.150000
                 energy =   -0.678815
                kinetic =    0.893337
    potential(screened) =   -1.572152
       potential(ionic) =   -4.130254

SPLIT: Orbitals with angular momentum L= 1

SPLIT: Basis orbitals for state 3p

SPLIT: PAO cut-off radius determined from an
SPLIT: energy shift=  0.020000 Ry

   izeta = 1
                 lambda =    1.000000
                     rc =    6.270866
                 energy =   -0.282378
                kinetic =    0.876691
    potential(screened) =   -1.159069
       potential(ionic) =   -3.412805

   izeta = 2
                 rmatch =    5.007352
              splitnorm =    0.150000
                 energy =   -0.188699
                kinetic =    1.264259
    potential(screened) =   -1.452958
       potential(ionic) =   -3.888870

POLgen: Perturbative polarization orbital with L=  2

POLgen: Polarization orbital for state 3p

   izeta = 1
                     rc =    6.270866
                 energy =    0.439886
                kinetic =    1.304868
    potential(screened) =   -0.864982
       potential(ionic) =   -2.934888
atom: Total number of Sankey-type orbitals: 13

atm_pop: Valence configuration (for local Pseudopot. screening):
 3s( 2.00)                                                            
 3p( 2.00)                                                            
Vna: chval, zval:    4.00000   4.00000

Vna:  Cut-off radius for the neutral-atom potential:   6.270866

atom: _________________________________________________________________________

prinput: Basis input ----------------------------------------------------------

PAO.BasisType split     

%block ChemicalSpeciesLabel
    1   14 Si                      # Species index, atomic number, species label
%endblock ChemicalSpeciesLabel

%block PAO.Basis                 # Define Basis set
Si                    2                    # Species label, number of l-shells
 n=3   0   2                         # n, l, Nzeta 
   5.007      4.419   
   1.000      1.000   
 n=3   1   2 P   1                   # n, l, Nzeta, Polarization, NzetaPol
   6.271      5.007   
   1.000      1.000   
%endblock PAO.Basis

prinput: ----------------------------------------------------------------------

Dumping basis to NetCDF file Si.ion.nc
coor:   Atomic-coordinates input format  =     Cartesian coordinates
coor:                                          (in Angstroms)

siesta: Atomic coordinates (Bohr) and species
siesta:      0.00000   0.00000   0.00000  1        1
siesta:      2.58893   2.58893   2.58893  1        2

siesta: System type = bulk      

initatomlists: Number of atoms, orbitals, and projectors:      2    26    32

siesta: ******************** Simulation parameters ****************************
siesta:
siesta: The following are some of the parameters of the simulation.
siesta: A complete list of the parameters used, including default values,
siesta: can be found in file out.fdf
siesta:
redata: Spin configuration                          = none
redata: Number of spin components                   = 1
redata: Time-Reversal Symmetry                      = T
redata: Spin spiral                                 = F
redata: Long output                                 =   F
redata: Number of Atomic Species                    =        1
redata: Charge density info will appear in .RHO file
redata: Write Mulliken Pop.                         = NO
redata: Matel table size (NRTAB)                    =     1024
redata: Mesh Cutoff                                 =   300.0000 Ry
redata: Net charge of the system                    =     0.0000 |e|
redata: Min. number of SCF Iter                     =        0
redata: Max. number of SCF Iter                     =     1000
redata: SCF convergence failure will abort job
redata: SCF mix quantity                            = Hamiltonian
redata: Mix DM or H after convergence               =   F
redata: Recompute H after scf cycle                 =   F
redata: Mix DM in first SCF step                    =   T
redata: Write Pulay info on disk                    =   F
redata: New DM Occupancy tolerance                  = 0.000000000001
redata: No kicks to SCF
redata: DM Mixing Weight for Kicks                  =     0.5000
redata: Require Harris convergence for SCF          =   F
redata: Harris energy tolerance for SCF             =     0.000100 eV
redata: Require DM convergence for SCF              =   T
redata: DM tolerance for SCF                        =     0.000100
redata: Require EDM convergence for SCF             =   F
redata: EDM tolerance for SCF                       =     0.001000 eV
redata: Require H convergence for SCF               =   T
redata: Hamiltonian tolerance for SCF               =     0.001000 eV
redata: Require (free) Energy convergence for SCF   =   F
redata: (free) Energy tolerance for SCF             =     0.000100 eV
redata: Using Saved Data (generic)                  =   F
redata: Use continuation files for DM               =   F
redata: Neglect nonoverlap interactions             =   F
redata: Method of Calculation                       = Diagonalization
redata: Electronic Temperature                      =   299.9978 K
redata: Fix the spin of the system                  =   F
redata: Dynamics option                             = Single-point calculation
mix.SCF: Pulay mixing                            = Pulay
mix.SCF:    Variant                              = stable
mix.SCF:    History steps                        = 2
mix.SCF:    Linear mixing weight                 =     0.250000
mix.SCF:    Mixing weight                        =     0.250000
mix.SCF:    SVD condition                        = 0.1000E-07
redata: Save all siesta data in one NC              =   F
redata: ***********************************************************************

%block SCF.Mixers
  Pulay
%endblock SCF.Mixers

%block SCF.Mixer.Pulay
  # Mixing method
  method pulay
  variant stable

  # Mixing options
  weight 0.2500
  weight.linear 0.2500
  history 2
%endblock SCF.Mixer.Pulay

DM_history_depth set to one: no extrapolation allowed by default for geometry relaxation
Size of DM history Fstack: 1
Total number of electrons:     8.000000
Total ionic charge:     8.000000
 Kpoints in:         1800 . Kpoints trimmed:         1688

siesta: k-grid: Number of k-points =  1688
siesta: k-grid: Cutoff (effective) =    29.062 Ang
siesta: k-grid: Supercell and displacements
siesta: k-grid:   15   0   0      0.000
siesta: k-grid:    0  15   0      0.000
siesta: k-grid:    0   0  15      0.000

diag: Algorithm                                     = D&C
diag: Used triangular part                          = Lower
diag: Absolute tolerance                            =  0.100E-15
diag: Orthogonalization factor                      =  0.100E-05
diag: Memory factor                                 =  1.0000
Using LatticeConstant from fdf file for BandLinesScale:    1.889727 Bohr
Beware any cell changes by the end of the run
Using LatticeConstant from fdf file for BandLinesScale:    1.889727 Bohr
Beware any cell changes by the end of the run

superc: Internal auxiliary supercell:     5 x     5 x     5  =     125
superc: Number of atoms, orbitals, and projectors:    250   3250   4000


ts: **************************************************************
ts: Save H and S matrices                           =    F
ts: Save DM and EDM matrices                        =    F
ts: Only save the overlap matrix S                  =    F
ts: **************************************************************

************************ Begin: TS CHECKS AND WARNINGS ************************
************************ End: TS CHECKS AND WARNINGS **************************


                     ====================================
                        Single-point calculation
                     ====================================

superc: Internal auxiliary supercell:     5 x     5 x     5  =     125
superc: Number of atoms, orbitals, and projectors:    250   3250   4000

outcell: Unit cell vectors (Ang):
        0.000000    2.740000    2.740000
        2.740000    0.000000    2.740000
        2.740000    2.740000    0.000000

outcell: Cell vector modules (Ang)   :    3.874945    3.874945    3.874945
outcell: Cell angles (23,13,12) (deg):     60.0000     60.0000     60.0000
outcell: Cell volume (Ang**3)        :     41.1416
<dSpData1D:S at geom step 0
  <sparsity:sparsity for geom step 0
    nrows_g=26 nrows=26 sparsity=58.9024 nnzs=39818, refcount: 7>
  <dData1D:(new from dSpData1D) n=39818, refcount: 1>
refcount: 1>
new_DM -- step:     1
Initializing Density Matrix...
DM filled with atomic data:
<dSpData2D:DM initialized from atoms
  <sparsity:sparsity for geom step 0
    nrows_g=26 nrows=26 sparsity=58.9024 nnzs=39818, refcount: 8>
  <dData2D:DM n=39818 m=1, refcount: 1>
refcount: 1>
No. of atoms with KB's overlaping orbs in proc 0. Max # of overlaps:      38     305
New grid distribution:   1
           1       1:   18    1:   18    1:   18

InitMesh: MESH =    36 x    36 x    36 =       46656
InitMesh: (bp) =    18 x    18 x    18 =        5832
InitMesh: Mesh cutoff (required, used) =   300.000   357.822 Ry
ExtMesh (bp) on 0 =    94 x    94 x    94 =      830584
PhiOnMesh: Number of (b)points on node 0 =                 5832
PhiOnMesh: nlist on node 0 =               486842

stepf: Fermi-Dirac step function

siesta: Program's energy decomposition (eV):
siesta: Ebs     =       -72.995562
siesta: Eions   =       377.610449
siesta: Ena     =       114.102497
siesta: Ekin    =        81.308443
siesta: Enl     =        29.236070
siesta: Eso     =         0.000000
siesta: Edftu   =         0.000000
siesta: DEna    =         3.644907
siesta: DUscf   =         0.283441
siesta: DUext   =         0.000000
siesta: Exc     =       -65.125843
siesta: eta*DQ  =         0.000000
siesta: Emadel  =         0.000000
siesta: Emeta   =         0.000000
siesta: Emolmec =         0.000000
siesta: Ekinion =         0.000000
siesta: Eharris =      -215.125786
siesta: Etot    =      -214.160936
siesta: FreeEng =      -214.160936

        iscf     Eharris(eV)        E_KS(eV)     FreeEng(eV)     dDmax    Ef(eV) dHmax(eV)
   scf:    1     -215.125786     -214.160936     -214.160936  1.809016 -3.870481  0.181697
timer: Routine,Calls,Time,% = IterSCF        1       4.918  75.54
   scf:    2     -214.162261     -214.161608     -214.161608  0.003570 -3.836086  0.129142
   scf:    3     -214.162800     -214.162261     -214.162261  0.008678 -3.750453  0.001767
   scf:    4     -214.162262     -214.162262     -214.162262  0.000048 -3.750045  0.001318
   scf:    5     -214.162263     -214.162262     -214.162263  0.000135 -3.748936  0.000039
   scf:    6     -214.162262     -214.162262     -214.162263  0.000002 -3.748932  0.000028

SCF Convergence by DM+H criterion
max |DM_out - DM_in|         :     0.0000024960
max |H_out - H_in|      (eV) :     0.0000280025
SCF cycle converged after 6 iterations

Using DM_out to compute the final energy and forces
No. of atoms with KB's overlaping orbs in proc 0. Max # of overlaps:      38     305

siesta: E_KS(eV) =             -214.1623

siesta: E_KS - E_eggbox =      -214.1623

siesta: Atomic forces (eV/Ang):
----------------------------------------
   Tot    0.000000    0.000000    0.000000
----------------------------------------
   Max    0.000002
   Res    0.000002    sqrt( Sum f_i^2 / 3N )
----------------------------------------
   Max    0.000002    constrained

Stress tensor Voigt[x,y,z,yz,xz,xy] (kbar):       -3.90       -3.90       -3.90       -0.00       -0.00       -0.00
(Free)E + p*V (eV/cell)     -214.0621
Target enthalpy (eV/cell)     -214.1623
Computing bands...

siesta: Band k vectors (Bohr**-1):
  ik            k
   1     0.831229     0.415615     1.246844
   2     0.831229     0.419944     1.242515
   3     0.831229     0.424273     1.238185
   4     0.831229     0.428603     1.233856
   5     0.831229     0.432932     1.229527
   6     0.831229     0.437261     1.225197
   7     0.831229     0.441591     1.220868
   8     0.831229     0.445920     1.216539
   9     0.831229     0.450249     1.212209
  10     0.831229     0.454579     1.207880
  11     0.831229     0.458908     1.203551
  12     0.831229     0.463237     1.199221
  13     0.831229     0.467566     1.194892
  14     0.831229     0.471896     1.190563
  15     0.831229     0.476225     1.186233
  16     0.831229     0.480554     1.181904
  17     0.831229     0.484884     1.177575
  18     0.831229     0.489213     1.173246
  19     0.831229     0.493542     1.168916
  20     0.831229     0.497872     1.164587
  21     0.831229     0.502201     1.160258
  22     0.831229     0.506530     1.155928
  23     0.831229     0.510860     1.151599
  24     0.831229     0.515189     1.147270
  25     0.831229     0.519518     1.142940
  26     0.831229     0.523848     1.138611
  27     0.831229     0.528177     1.134282
  28     0.831229     0.532506     1.129952
  29     0.831229     0.536836     1.125623
  30     0.831229     0.541165     1.121294
  31     0.831229     0.545494     1.116964
  32     0.831229     0.549824     1.112635
  33     0.831229     0.554153     1.108306
  34     0.831229     0.558482     1.103976
  35     0.831229     0.562811     1.099647
  36     0.831229     0.567141     1.095318
  37     0.831229     0.571470     1.090988
  38     0.831229     0.575799     1.086659
  39     0.831229     0.580129     1.082330
  40     0.831229     0.584458     1.078000
  41     0.831229     0.588787     1.073671
  42     0.831229     0.593117     1.069342
  43     0.831229     0.597446     1.065013
  44     0.831229     0.601775     1.060683
  45     0.831229     0.606105     1.056354
  46     0.831229     0.610434     1.052025
  47     0.831229     0.614763     1.047695
  48     0.831229     0.619093     1.043366
  49     0.831229     0.623422     1.039037
  50     0.831229     0.627751     1.034707
  51     0.831229     0.632081     1.030378
  52     0.831229     0.636410     1.026049
  53     0.831229     0.640739     1.021719
  54     0.831229     0.645069     1.017390
  55     0.831229     0.649398     1.013061
  56     0.831229     0.653727     1.008731
  57     0.831229     0.658057     1.004402
  58     0.831229     0.662386     1.000073
  59     0.831229     0.666715     0.995743
  60     0.831229     0.671044     0.991414
  61     0.831229     0.675374     0.987085
  62     0.831229     0.679703     0.982755
  63     0.831229     0.684032     0.978426
  64     0.831229     0.688362     0.974097
  65     0.831229     0.692691     0.969768
  66     0.831229     0.697020     0.965438
  67     0.831229     0.701350     0.961109
  68     0.831229     0.705679     0.956780
  69     0.831229     0.710008     0.952450
  70     0.831229     0.714338     0.948121
  71     0.831229     0.718667     0.943792
  72     0.831229     0.722996     0.939462
  73     0.831229     0.727326     0.935133
  74     0.831229     0.731655     0.930804
  75     0.831229     0.735984     0.926474
  76     0.831229     0.740314     0.922145
  77     0.831229     0.744643     0.917816
  78     0.831229     0.748972     0.913486
  79     0.831229     0.753302     0.909157
  80     0.831229     0.757631     0.904828
  81     0.831229     0.761960     0.900498
  82     0.831229     0.766289     0.896169
  83     0.831229     0.770619     0.891840
  84     0.831229     0.774948     0.887510
  85     0.831229     0.779277     0.883181
  86     0.831229     0.783607     0.878852
  87     0.831229     0.787936     0.874522
  88     0.831229     0.792265     0.870193
  89     0.831229     0.796595     0.865864
  90     0.831229     0.800924     0.861535
  91     0.831229     0.805253     0.857205
  92     0.831229     0.809583     0.852876
  93     0.831229     0.813912     0.848547
  94     0.831229     0.818241     0.844217
  95     0.831229     0.822571     0.839888
  96     0.831229     0.826900     0.835559
  97     0.831229     0.831229     0.831229
  98     0.822571     0.822571     0.822571
  99     0.813912     0.813912     0.813912
 100     0.805253     0.805253     0.805253
 101     0.796595     0.796595     0.796595
 102     0.787936     0.787936     0.787936
 103     0.779277     0.779277     0.779277
 104     0.770619     0.770619     0.770619
 105     0.761960     0.761960     0.761960
 106     0.753302     0.753302     0.753302
 107     0.744643     0.744643     0.744643
 108     0.735984     0.735984     0.735984
 109     0.727326     0.727326     0.727326
 110     0.718667     0.718667     0.718667
 111     0.710008     0.710008     0.710008
 112     0.701350     0.701350     0.701350
 113     0.692691     0.692691     0.692691
 114     0.684032     0.684032     0.684032
 115     0.675374     0.675374     0.675374
 116     0.666715     0.666715     0.666715
 117     0.658057     0.658057     0.658057
 118     0.649398     0.649398     0.649398
 119     0.640739     0.640739     0.640739
 120     0.632081     0.632081     0.632081
 121     0.623422     0.623422     0.623422
 122     0.614763     0.614763     0.614763
 123     0.606105     0.606105     0.606105
 124     0.597446     0.597446     0.597446
 125     0.588787     0.588787     0.588787
 126     0.580129     0.580129     0.580129
 127     0.571470     0.571470     0.571470
 128     0.562811     0.562811     0.562811
 129     0.554153     0.554153     0.554153
 130     0.545494     0.545494     0.545494
 131     0.536836     0.536836     0.536836
 132     0.528177     0.528177     0.528177
 133     0.519518     0.519518     0.519518
 134     0.510860     0.510860     0.510860
 135     0.502201     0.502201     0.502201
 136     0.493542     0.493542     0.493542
 137     0.484884     0.484884     0.484884
 138     0.476225     0.476225     0.476225
 139     0.467566     0.467566     0.467566
 140     0.458908     0.458908     0.458908
 141     0.450249     0.450249     0.450249
 142     0.441591     0.441591     0.441591
 143     0.432932     0.432932     0.432932
 144     0.424273     0.424273     0.424273
 145     0.415615     0.415615     0.415615
 146     0.406956     0.406956     0.406956
 147     0.398297     0.398297     0.398297
 148     0.389639     0.389639     0.389639
 149     0.380980     0.380980     0.380980
 150     0.372321     0.372321     0.372321
 151     0.363663     0.363663     0.363663
 152     0.355004     0.355004     0.355004
 153     0.346346     0.346346     0.346346
 154     0.337687     0.337687     0.337687
 155     0.329028     0.329028     0.329028
 156     0.320370     0.320370     0.320370
 157     0.311711     0.311711     0.311711
 158     0.303052     0.303052     0.303052
 159     0.294394     0.294394     0.294394
 160     0.285735     0.285735     0.285735
 161     0.277076     0.277076     0.277076
 162     0.268418     0.268418     0.268418
 163     0.259759     0.259759     0.259759
 164     0.251101     0.251101     0.251101
 165     0.242442     0.242442     0.242442
 166     0.233783     0.233783     0.233783
 167     0.225125     0.225125     0.225125
 168     0.216466     0.216466     0.216466
 169     0.207807     0.207807     0.207807
 170     0.199149     0.199149     0.199149
 171     0.190490     0.190490     0.190490
 172     0.181831     0.181831     0.181831
 173     0.173173     0.173173     0.173173
 174     0.164514     0.164514     0.164514
 175     0.155855     0.155855     0.155855
 176     0.147197     0.147197     0.147197
 177     0.138538     0.138538     0.138538
 178     0.129880     0.129880     0.129880
 179     0.121221     0.121221     0.121221
 180     0.112562     0.112562     0.112562
 181     0.103904     0.103904     0.103904
 182     0.095245     0.095245     0.095245
 183     0.086586     0.086586     0.086586
 184     0.077928     0.077928     0.077928
 185     0.069269     0.069269     0.069269
 186     0.060610     0.060610     0.060610
 187     0.051952     0.051952     0.051952
 188     0.043293     0.043293     0.043293
 189     0.034635     0.034635     0.034635
 190     0.025976     0.025976     0.025976
 191     0.017317     0.017317     0.017317
 192     0.008659     0.008659     0.008659
 193     0.000000     0.000000     0.000000
 194     0.008659     0.000000     0.008659
 195     0.017317     0.000000     0.017317
 196     0.025976     0.000000     0.025976
 197     0.034635     0.000000     0.034635
 198     0.043293     0.000000     0.043293
 199     0.051952     0.000000     0.051952
 200     0.060610     0.000000     0.060610
 201     0.069269     0.000000     0.069269
 202     0.077928     0.000000     0.077928
 203     0.086586     0.000000     0.086586
 204     0.095245     0.000000     0.095245
 205     0.103904     0.000000     0.103904
 206     0.112562     0.000000     0.112562
 207     0.121221     0.000000     0.121221
 208     0.129880     0.000000     0.129880
 209     0.138538     0.000000     0.138538
 210     0.147197     0.000000     0.147197
 211     0.155855     0.000000     0.155855
 212     0.164514     0.000000     0.164514
 213     0.173173     0.000000     0.173173
 214     0.181831     0.000000     0.181831
 215     0.190490     0.000000     0.190490
 216     0.199149     0.000000     0.199149
 217     0.207807     0.000000     0.207807
 218     0.216466     0.000000     0.216466
 219     0.225125     0.000000     0.225125
 220     0.233783     0.000000     0.233783
 221     0.242442     0.000000     0.242442
 222     0.251101     0.000000     0.251101
 223     0.259759     0.000000     0.259759
 224     0.268418     0.000000     0.268418
 225     0.277076     0.000000     0.277076
 226     0.285735     0.000000     0.285735
 227     0.294394     0.000000     0.294394
 228     0.303052     0.000000     0.303052
 229     0.311711     0.000000     0.311711
 230     0.320370     0.000000     0.320370
 231     0.329028     0.000000     0.329028
 232     0.337687     0.000000     0.337687
 233     0.346346     0.000000     0.346346
 234     0.355004     0.000000     0.355004
 235     0.363663     0.000000     0.363663
 236     0.372321     0.000000     0.372321
 237     0.380980     0.000000     0.380980
 238     0.389639     0.000000     0.389639
 239     0.398297     0.000000     0.398297
 240     0.406956     0.000000     0.406956
 241     0.415615     0.000000     0.415615
 242     0.424273     0.000000     0.424273
 243     0.432932     0.000000     0.432932
 244     0.441591     0.000000     0.441591
 245     0.450249     0.000000     0.450249
 246     0.458908     0.000000     0.458908
 247     0.467566     0.000000     0.467566
 248     0.476225     0.000000     0.476225
 249     0.484884     0.000000     0.484884
 250     0.493542     0.000000     0.493542
 251     0.502201     0.000000     0.502201
 252     0.510860     0.000000     0.510860
 253     0.519518     0.000000     0.519518
 254     0.528177     0.000000     0.528177
 255     0.536836     0.000000     0.536836
 256     0.545494     0.000000     0.545494
 257     0.554153     0.000000     0.554153
 258     0.562811     0.000000     0.562811
 259     0.571470     0.000000     0.571470
 260     0.580129     0.000000     0.580129
 261     0.588787     0.000000     0.588787
 262     0.597446     0.000000     0.597446
 263     0.606105     0.000000     0.606105
 264     0.614763     0.000000     0.614763
 265     0.623422     0.000000     0.623422
 266     0.632081     0.000000     0.632081
 267     0.640739     0.000000     0.640739
 268     0.649398     0.000000     0.649398
 269     0.658057     0.000000     0.658057
 270     0.666715     0.000000     0.666715
 271     0.675374     0.000000     0.675374
 272     0.684032     0.000000     0.684032
 273     0.692691     0.000000     0.692691
 274     0.701350     0.000000     0.701350
 275     0.710008     0.000000     0.710008
 276     0.718667     0.000000     0.718667
 277     0.727326     0.000000     0.727326
 278     0.735984     0.000000     0.735984
 279     0.744643     0.000000     0.744643
 280     0.753302     0.000000     0.753302
 281     0.761960     0.000000     0.761960
 282     0.770619     0.000000     0.770619
 283     0.779277     0.000000     0.779277
 284     0.787936     0.000000     0.787936
 285     0.796595     0.000000     0.796595
 286     0.805253     0.000000     0.805253
 287     0.813912     0.000000     0.813912
 288     0.822571     0.000000     0.822571
 289     0.831229     0.000000     0.831229
 290     0.831229     0.004329     0.835559
 291     0.831229     0.008659     0.839888
 292     0.831229     0.012988     0.844217
 293     0.831229     0.017317     0.848547
 294     0.831229     0.021647     0.852876
 295     0.831229     0.025976     0.857205
 296     0.831229     0.030305     0.861535
 297     0.831229     0.034635     0.865864
 298     0.831229     0.038964     0.870193
 299     0.831229     0.043293     0.874522
 300     0.831229     0.047623     0.878852
 301     0.831229     0.051952     0.883181
 302     0.831229     0.056281     0.887510
 303     0.831229     0.060610     0.891840
 304     0.831229     0.064940     0.896169
 305     0.831229     0.069269     0.900498
 306     0.831229     0.073598     0.904828
 307     0.831229     0.077928     0.909157
 308     0.831229     0.082257     0.913486
 309     0.831229     0.086586     0.917816
 310     0.831229     0.090916     0.922145
 311     0.831229     0.095245     0.926474
 312     0.831229     0.099574     0.930804
 313     0.831229     0.103904     0.935133
 314     0.831229     0.108233     0.939462
 315     0.831229     0.112562     0.943792
 316     0.831229     0.116892     0.948121
 317     0.831229     0.121221     0.952450
 318     0.831229     0.125550     0.956780
 319     0.831229     0.129880     0.961109
 320     0.831229     0.134209     0.965438
 321     0.831229     0.138538     0.969768
 322     0.831229     0.142868     0.974097
 323     0.831229     0.147197     0.978426
 324     0.831229     0.151526     0.982755
 325     0.831229     0.155855     0.987085
 326     0.831229     0.160185     0.991414
 327     0.831229     0.164514     0.995743
 328     0.831229     0.168843     1.000073
 329     0.831229     0.173173     1.004402
 330     0.831229     0.177502     1.008731
 331     0.831229     0.181831     1.013061
 332     0.831229     0.186161     1.017390
 333     0.831229     0.190490     1.021719
 334     0.831229     0.194819     1.026049
 335     0.831229     0.199149     1.030378
 336     0.831229     0.203478     1.034707
 337     0.831229     0.207807     1.039037
 338     0.831229     0.212137     1.043366
 339     0.831229     0.216466     1.047695
 340     0.831229     0.220795     1.052025
 341     0.831229     0.225125     1.056354
 342     0.831229     0.229454     1.060683
 343     0.831229     0.233783     1.065013
 344     0.831229     0.238113     1.069342
 345     0.831229     0.242442     1.073671
 346     0.831229     0.246771     1.078000
 347     0.831229     0.251101     1.082330
 348     0.831229     0.255430     1.086659
 349     0.831229     0.259759     1.090988
 350     0.831229     0.264088     1.095318
 351     0.831229     0.268418     1.099647
 352     0.831229     0.272747     1.103976
 353     0.831229     0.277076     1.108306
 354     0.831229     0.281406     1.112635
 355     0.831229     0.285735     1.116964
 356     0.831229     0.290064     1.121294
 357     0.831229     0.294394     1.125623
 358     0.831229     0.298723     1.129952
 359     0.831229     0.303052     1.134282
 360     0.831229     0.307382     1.138611
 361     0.831229     0.311711     1.142940
 362     0.831229     0.316040     1.147270
 363     0.831229     0.320370     1.151599
 364     0.831229     0.324699     1.155928
 365     0.831229     0.329028     1.160258
 366     0.831229     0.333358     1.164587
 367     0.831229     0.337687     1.168916
 368     0.831229     0.342016     1.173246
 369     0.831229     0.346346     1.177575
 370     0.831229     0.350675     1.181904
 371     0.831229     0.355004     1.186233
 372     0.831229     0.359333     1.190563
 373     0.831229     0.363663     1.194892
 374     0.831229     0.367992     1.199221
 375     0.831229     0.372321     1.203551
 376     0.831229     0.376651     1.207880
 377     0.831229     0.380980     1.212209
 378     0.831229     0.385309     1.216539
 379     0.831229     0.389639     1.220868
 380     0.831229     0.393968     1.225197
 381     0.831229     0.398297     1.229527
 382     0.831229     0.402627     1.233856
 383     0.831229     0.406956     1.238185
 384     0.831229     0.411285     1.242515
 385     0.831229     0.415615     1.246844
 386     0.829065     0.417779     1.246844
 387     0.826900     0.419944     1.246844
 388     0.824735     0.422109     1.246844
 389     0.822571     0.424273     1.246844
 390     0.820406     0.426438     1.246844
 391     0.818241     0.428603     1.246844
 392     0.816077     0.430767     1.246844
 393     0.813912     0.432932     1.246844
 394     0.811747     0.435097     1.246844
 395     0.809583     0.437261     1.246844
 396     0.807418     0.439426     1.246844
 397     0.805253     0.441591     1.246844
 398     0.803089     0.443755     1.246844
 399     0.800924     0.445920     1.246844
 400     0.798759     0.448085     1.246844
 401     0.796595     0.450249     1.246844
 402     0.794430     0.452414     1.246844
 403     0.792265     0.454579     1.246844
 404     0.790101     0.456743     1.246844
 405     0.787936     0.458908     1.246844
 406     0.785771     0.461072     1.246844
 407     0.783607     0.463237     1.246844
 408     0.781442     0.465402     1.246844
 409     0.779277     0.467566     1.246844
 410     0.777113     0.469731     1.246844
 411     0.774948     0.471896     1.246844
 412     0.772783     0.474060     1.246844
 413     0.770619     0.476225     1.246844
 414     0.768454     0.478390     1.246844
 415     0.766289     0.480554     1.246844
 416     0.764125     0.482719     1.246844
 417     0.761960     0.484884     1.246844
 418     0.759796     0.487048     1.246844
 419     0.757631     0.489213     1.246844
 420     0.755466     0.491378     1.246844
 421     0.753302     0.493542     1.246844
 422     0.751137     0.495707     1.246844
 423     0.748972     0.497872     1.246844
 424     0.746808     0.500036     1.246844
 425     0.744643     0.502201     1.246844
 426     0.742478     0.504366     1.246844
 427     0.740314     0.506530     1.246844
 428     0.738149     0.508695     1.246844
 429     0.735984     0.510860     1.246844
 430     0.733820     0.513024     1.246844
 431     0.731655     0.515189     1.246844
 432     0.729490     0.517354     1.246844
 433     0.727326     0.519518     1.246844
 434     0.725161     0.521683     1.246844
 435     0.722996     0.523848     1.246844
 436     0.720832     0.526012     1.246844
 437     0.718667     0.528177     1.246844
 438     0.716502     0.530342     1.246844
 439     0.714338     0.532506     1.246844
 440     0.712173     0.534671     1.246844
 441     0.710008     0.536836     1.246844
 442     0.707844     0.539000     1.246844
 443     0.705679     0.541165     1.246844
 444     0.703514     0.543330     1.246844
 445     0.701350     0.545494     1.246844
 446     0.699185     0.547659     1.246844
 447     0.697020     0.549824     1.246844
 448     0.694856     0.551988     1.246844
 449     0.692691     0.554153     1.246844
 450     0.690526     0.556318     1.246844
 451     0.688362     0.558482     1.246844
 452     0.686197     0.560647     1.246844
 453     0.684032     0.562811     1.246844
 454     0.681868     0.564976     1.246844
 455     0.679703     0.567141     1.246844
 456     0.677538     0.569305     1.246844
 457     0.675374     0.571470     1.246844
 458     0.673209     0.573635     1.246844
 459     0.671044     0.575799     1.246844
 460     0.668880     0.577964     1.246844
 461     0.666715     0.580129     1.246844
 462     0.664550     0.582293     1.246844
 463     0.662386     0.584458     1.246844
 464     0.660221     0.586623     1.246844
 465     0.658057     0.588787     1.246844
 466     0.655892     0.590952     1.246844
 467     0.653727     0.593117     1.246844
 468     0.651563     0.595281     1.246844
 469     0.649398     0.597446     1.246844
 470     0.647233     0.599611     1.246844
 471     0.645069     0.601775     1.246844
 472     0.642904     0.603940     1.246844
 473     0.640739     0.606105     1.246844
 474     0.638575     0.608269     1.246844
 475     0.636410     0.610434     1.246844
 476     0.634245     0.612599     1.246844
 477     0.632081     0.614763     1.246844
 478     0.629916     0.616928     1.246844
 479     0.627751     0.619093     1.246844
 480     0.625587     0.621257     1.246844
 481     0.623422     0.623422     1.246844

siesta: Band energies (eV):
  ik is       eps
   1  1  -12.8399  -10.8393   -8.3751   -6.2152   -2.2999    1.8431    2.1776    2.6914    3.3809    4.2843
          11.0901   11.7586   12.4331   13.6761   14.0580   14.8711   17.7737   19.1570   21.9009   23.4582
   24.6084   29.5183   39.6462   43.0237   48.5624   81.0765
   2  1  -12.8111  -10.8582   -8.3926   -6.2435   -2.3035    1.8381    2.1483    2.7866    3.3393    4.3259
          11.0727   11.8468   12.5133   13.5695   14.0895   14.8495   17.7189   19.1628   21.9075   23.2689
   24.6443   29.4752   39.5264   42.9615   48.3113   80.9733
   3  1  -12.7824  -10.8782   -8.4070   -6.2726   -2.3046    1.8118    2.1360    2.8594    3.3233    4.3714
          11.0503   11.9321   12.5784   13.4450   14.1411   14.8454   17.6585   19.1779   21.9166   23.0806
   24.6798   29.4340   39.4082   42.8994   48.0796   80.8174
   4  1  -12.7540  -10.8992   -8.4183   -6.3025   -2.3033    1.7669    2.1392    2.8954    3.3455    4.4214
          11.0224   12.0145   12.6170   13.3364   14.1865   14.8630   17.5938   19.2008   21.9282   22.8934
   24.7150   29.3949   39.2919   42.8380   47.8672   80.6106
   5  1  -12.7259  -10.9209   -8.4267   -6.3332   -2.2995    1.7100    2.1514    2.8946    3.4049    4.4769
          10.9884   12.0940   12.6143   13.2647   14.2182   14.9037   17.5266   19.2302   21.9420   22.7077
   24.7496   29.3584   39.1779   42.7776   47.6742   80.3553
   6  1  -12.6982  -10.9432   -8.4321   -6.3646   -2.2932    1.6463    2.1663    2.8719    3.4865    4.5390
          10.9474   12.1702   12.5634   13.2388   14.2373   14.9651   17.4581   19.2649   21.9576   22.5243
   24.7838   29.3246   39.0664   42.7183   47.5010   80.0540
   7  1  -12.6713  -10.9658   -8.4347   -6.3965   -2.2845    1.5790    2.1793    2.8418    3.5761    4.6086
          10.8984   12.2419   12.4769   13.2473   14.2490   15.0425   17.3898   19.3037   21.9729   22.3452
   24.8176   29.2940   38.9577   42.6600   47.3479   79.7100
   8  1  -12.6452  -10.9885   -8.4346   -6.4290   -2.2735    1.5098    2.1869    2.8131    3.6656    4.6869
          10.8404   12.2966   12.3855   13.2714   14.2596   15.1305   17.3231   19.3455   21.9785   22.1800
   24.8509   29.2668   38.8521   42.6023   47.2157   79.3264
   9  1  -12.6201  -11.0110   -8.4318   -6.4619   -2.2602    1.4398    2.1860    2.7914    3.7507    4.7745
          10.7723   12.2382   12.3989   13.2969   14.2742   15.2248   17.2595   19.3893   21.9161   22.0871
   24.8839   29.2435   38.7498   42.5448   47.1050   78.9069
  10  1  -12.5964  -11.0329   -8.4266   -6.4952   -2.2446    1.3695    2.1744    2.7801    3.8292    4.8718
          10.6932   12.1326   12.4586   13.3161   14.2965   15.3223   17.2003   19.4342   21.7629   22.0895
   24.9165   29.2244   38.6512   42.4868   47.0167   78.4549
  11  1  -12.5741  -11.0538   -8.4190   -6.5287   -2.2267    1.2993    2.1515    2.7804    3.9002    4.9787
          10.6024   12.0299   12.5184   13.3251   14.3282   15.4203   17.1471   19.4793   21.5911   22.1151
   24.9489   29.2099   38.5564   42.4277   46.9518   77.9741
  12  1  -12.5536  -11.0736   -8.4092   -6.5624   -2.2067    1.2295    2.1182    2.7919    3.9635    5.0946
          10.5000   11.9352   12.5751   13.3230   14.3694   15.5166   17.1016   19.5239   21.4167   22.1480
   24.9810   29.2002   38.4657   42.3667   46.9110   77.4684
  13  1  -12.5352  -11.0916   -8.3973   -6.5961   -2.1846    1.1603    2.0762    2.8130    4.0197    5.2185
          10.3863   11.8497   12.6275   13.3106   14.4193   15.6093   17.0655   19.5670   21.2427   22.1855
   25.0130   29.1957   38.3793   42.3033   46.8952   76.9412
  14  1  -12.5191  -11.1077   -8.3835   -6.6297   -2.1604    1.0917    2.0275    2.8419    4.0695    5.3493
          10.2625   11.7735   12.6751   13.2895   14.4760   15.6962   17.0409   19.6080   21.0701   22.2270
   25.0448   29.1969   38.2974   42.2370   46.9050   76.3963
  15  1  -12.5057  -11.1213   -8.3679   -6.6632   -2.1341    1.0239    1.9739    2.8767    4.1137    5.4859
          10.1299   11.7057   12.7170   13.2616   14.5380   15.7754   17.0295   19.6459   20.8997   22.2720
   25.0765   29.2039   38.2202   42.1672   46.9410   75.8369
  16  1  -12.4952  -11.1321   -8.3506   -6.6964   -2.1059    0.9569    1.9169    2.9162    4.1531    5.6274
           9.9899   11.6453   12.7524   13.2290   14.6038   15.8454   17.0332   19.6798   20.7321   22.3206
   25.1081   29.2170   38.1479   42.0939   47.0035   75.2665
  17  1  -12.4878  -11.1398   -8.3319   -6.7292   -2.0758    0.8909    1.8576    2.9592    4.1882    5.7728
           9.8441   11.5913   12.7802   13.1936   14.6721   15.9049   17.0528   19.7082   20.5685   22.3729
   25.1395   29.2366   38.0805   42.0170   47.0926   74.6882
  18  1  -12.4839  -11.1441   -8.3118   -6.7614   -2.0438    0.8257    1.7966    3.0051    4.2197    5.9212
           9.6939   11.5424   12.7991   13.1576   14.7421   15.9538   17.0884   19.7290   20.4110   22.4288
   25.1708   29.2628   38.0184   41.9365   47.2085   74.1050
  19  1  -12.4835  -11.1448   -8.2906   -6.7929   -2.0101    0.7616    1.7347    3.0533    4.2481    6.0720
           9.5406   11.4977   12.8075   13.1231   14.8133   15.9931   17.1388   19.7378   20.2640   22.4885
   25.2019   29.2958   37.9616   41.8528   47.3508   73.5197
  20  1  -12.4867  -11.1417   -8.2684   -6.8236   -1.9746    0.6985    1.6721    3.1034    4.2736    6.2245
           9.3854   11.4564   12.8037   13.0921   14.8852   16.0244   17.2018   19.7252   20.1367   22.5520
   25.2327   29.3358   37.9102   41.7661   47.5195   72.9349
  21  1  -12.4935  -11.1348   -8.2454   -6.8532   -1.9374    0.6365    1.6092    3.1551    4.2965    6.3779
           9.2294   11.4177   12.7867   13.0658   14.9577   16.0499   17.2746   19.6756   20.0451   22.6194
   25.2632   29.3828   37.8644   41.6770   47.7141   72.3530
  22  1  -12.5039  -11.1240   -8.2218   -6.8816   -1.8986    0.5756    1.5463    3.2080    4.3171    6.5314
           9.0738   11.3812   12.7573   13.0441   15.0307   16.0717   17.3544   19.5817   19.9971   22.6909
   25.2932   29.4368   37.8244   41.5859   47.9342   71.7763
  23  1  -12.5178  -11.1095   -8.1978   -6.9086   -1.8582    0.5158    1.4834    3.2622    4.3355    6.6840
           8.9199   11.3464   12.7174   13.0252   15.1040   16.0914   17.4384   19.4576   19.9792   22.7664
   25.3226   29.4978   37.7901   41.4934   48.1794   71.2070
  24  1  -12.5350  -11.0913   -8.1735   -6.9340   -1.8163    0.4573    1.4208    3.3173    4.3518    6.8344
           8.7691   11.3129   12.6694   13.0071   15.1777   16.1104   17.5241   19.3197   19.9758   22.8459
   25.3513   29.5657   37.7618   41.3999   48.4492   70.6470
  25  1  -12.5551  -11.0698   -8.1493   -6.9576   -1.7729    0.3999    1.3585    3.3732    4.3661    6.9803
           8.6240   11.2805   12.6155   12.9880   15.2517   16.1296   17.6090   19.1769   19.9793   22.9295
   25.3793   29.6403   37.7395   41.3062   48.7430   70.0980
  26  1  -12.5781  -11.0451   -8.1253   -6.9791   -1.7283    0.3439    1.2966    3.4298    4.3784    7.1182
           8.4881   11.2490   12.5571   12.9669   15.3258   16.1496   17.6912   19.0333   19.9871   23.0172
   25.4063   29.7215   37.7234   41.2127   49.0601   69.5619
  27  1  -12.6036  -11.0176   -8.1018   -6.9983   -1.6823    0.2892    1.2353    3.4869    4.3889    7.2415
           8.3684   11.2182   12.4951   12.9435   15.3999   16.1706   17.7684   18.8912   19.9987   23.1088
   25.4324   29.8089   37.7135   41.1200   49.3999   69.0403
  28  1  -12.6313  -10.9874   -8.0791   -7.0148   -1.6351    0.2359    1.1744    3.5444    4.3975    7.3381
           8.2767   11.1880   12.4303   12.9175   15.4736   16.1927   17.8387   18.7523   20.0146   23.2044
   25.4573   29.9022   37.7099   41.0287   49.7615   68.5347
  29  1  -12.6609  -10.9548   -8.0573   -7.0285   -1.5868    0.1840    1.1142    3.6021    4.4044    7.3899
           8.2314   11.1583   12.3630   12.8891   15.5465   16.2159   17.8997   18.6181   20.0358   23.3037
   25.4810   30.0011   37.7127   40.9395   50.1440   68.0469
  30  1  -12.6923  -10.9202   -8.0367   -7.0390   -1.5375    0.1338    1.0546    3.6597    4.4095    7.3821
           8.2473   11.1292   12.2936   12.8583   15.6178   16.2402   17.9487   18.4912   20.0633   23.4066
   25.5034   30.1051   37.7219   40.8530   50.5461   67.5784
  31  1  -12.7251  -10.8837   -8.0177   -7.0462   -1.4873    0.0851    0.9957    3.7168    4.4130    7.3201
           8.3188   11.1006   12.2224   12.8255   15.6865   16.2656   17.9811   18.3758   20.0982   23.5130
   25.5244   30.2137   37.7374   40.7699   50.9664   67.1310
  32  1  -12.7592  -10.8457   -8.0002   -7.0496   -1.4363    0.0383    0.9374    3.7731    4.4152    7.2232
           8.4268   11.0726   12.1498   12.7909   15.7512   16.2924   17.9877   18.2815   20.1415   23.6227
   25.5440   30.3266   37.7593   40.6909   51.4029   66.7067
  33  1  -12.7943  -10.8063   -7.9846   -7.0493   -1.3849   -0.0066    0.8799    3.8278    4.4164    7.1078
           8.5548   11.0455   12.0758   12.7546   15.8101   16.3211   17.9553   18.2225   20.1936   23.7355
   25.5622   30.4431   37.7874   40.6168   51.8536   66.3077
  34  1  -12.8303  -10.7658   -7.9708   -7.0451   -1.3330   -0.0493    0.8231    3.8800    4.4174    6.9834
           8.6929   11.0192   12.0010   12.7169   15.8608   16.3529   17.8856   18.1983   20.2546   23.8513
   25.5789   30.5629   37.8215   40.5486   52.3154   65.9366
  35  1  -12.8669  -10.7244   -7.9588   -7.0368   -1.2811   -0.0897    0.7671    3.9282    4.4191    6.8554
           8.8356   10.9942   11.9258   12.6779   15.9006   16.3889   17.7981   18.1914   20.3243   23.9697
   25.5941   30.6854   37.8612   40.4873   52.7848   65.5966
  36  1  -12.9041  -10.6824   -7.9486   -7.0246   -1.2295   -0.1273    0.7118    3.9704    4.4234    6.7268
           8.9794   10.9707   11.8506   12.6377   15.9268   16.4305   17.7065   18.1901   20.4022   24.0906
   25.6077   30.8101   37.9061   40.4341   53.2575   65.2915
  37  1  -12.9418  -10.6398   -7.9401   -7.0086   -1.1787   -0.1618    0.6573    4.0037    4.4326    6.5997
           9.1215   10.9492   11.7761   12.5965   15.9378   16.4780   17.6161   18.1912   20.4874   24.2136
   25.6199   30.9366   37.9553   40.3904   53.7278   65.0259
  38  1  -12.9797  -10.5969   -7.9328   -6.9888   -1.1291   -0.1925    0.6037    4.0250    4.4494    6.4754
           9.2595   10.9301   11.7035   12.5541   15.9333   16.5312   17.5287   18.1951   20.5791   24.3387
   25.6305   31.0643   38.0081   40.3578   54.1892   64.8054
  39  1  -13.0178  -10.5539   -7.9267   -6.9657   -1.0816   -0.2188    0.5508    4.0320    4.4756    6.3551
           9.3910   10.9137   11.6341   12.5108   15.9141   16.5886   17.4445   18.2032   20.6765   24.4654
   25.6396   31.1930   38.0631   40.3380   54.6337   64.6366
  40  1  -13.0560  -10.5111   -7.9213   -6.9393   -1.0372   -0.2396    0.4988    4.0237    4.5117    6.2396
           9.5132   10.9003   11.5703   12.4664   15.8817   16.6487   17.3630   18.2172   20.7785   24.5935
   25.6473   31.3221   38.1191   40.3332   55.0523   64.5268
  41  1  -13.0942  -10.4684   -7.9162   -6.9099   -0.9969   -0.2540    0.4476    4.0009    4.5564    6.1297
           9.6230   10.8890   11.5154   12.4211   15.8383   16.7092   17.2839   18.2386   20.8846   24.7227
   25.6536   31.4514   38.1742   40.3455   55.4352   64.4840
  42  1  -13.1323  -10.4263   -7.9111   -6.8780   -0.9621   -0.2606    0.3974    3.9652    4.6078    6.0259
           9.7173   10.8777   11.4747   12.3748   15.7859   16.7674   17.2080   18.2684   20.9938   24.8526
   25.6587   31.5805   38.2270   40.3771   55.7729   64.5153
  43  1  -13.1704  -10.3847   -7.9056   -6.8437   -0.9340   -0.2583    0.3480    3.9179    4.6642    5.9288
           9.7931   10.8620   11.4547   12.3277   15.7266   16.8175   17.1393   18.3069   21.1056   24.9828
   25.6626   31.7093   38.2756   40.4301   56.0573   64.6262
  44  1  -13.2082  -10.3440   -7.8993   -6.8073   -0.9135   -0.2461    0.2996    3.8602    4.7242    5.8387
           9.8487   10.8370   11.4618   12.2802   15.6624   16.8450   17.0913   18.3543   21.2195   25.1127
   25.6657   31.8375   38.3187   40.5063   56.2830   64.8192
  45  1  -13.2458  -10.3043   -7.8920   -6.7690   -0.9010   -0.2238    0.2522    3.7930    4.7868    5.7558
           9.8839   10.7996   11.4985   12.2328   15.5950   16.8269   17.0865   18.4102   21.3350   25.2413
   25.6688   31.9649   38.3555   40.6070   56.4487   65.0924
  46  1  -13.2830  -10.2657   -7.8832   -6.7292   -0.8960   -0.1920    0.2059    3.7172    4.8513    5.6799
           9.8999   10.7501   11.5616   12.1871   15.5259   16.7666   17.1211   18.4738   21.4517   25.3667
   25.6735   32.0916   38.3854   40.7328   56.5568   65.4394
  47  1  -13.3200  -10.2285   -7.8727   -6.6880   -0.8977   -0.1519    0.1611    3.6335    4.9171    5.6108
           9.8988   10.6912   11.6428   12.1462   15.4563   16.6863   17.1731   18.5445   21.5692   25.4827
   25.6859   32.2173   38.4087   40.8837   56.6131   65.8504
  48  1  -13.3565  -10.1927   -7.8601   -6.6456   -0.9047   -0.1055    0.1184    3.5427    4.9840    5.5484
           9.8833   10.6261   11.7282   12.1186   15.3871   16.5972   17.2314   18.6214   21.6872   25.5685
   25.7263   32.3421   38.4260   41.0591   56.6252   66.3133
  49  1  -13.3926  -10.1586   -7.8453   -6.6021   -0.9159   -0.0569    0.0807    3.4455    5.0516    5.4920
           9.8556   10.5570   11.7926   12.1247   15.3193   16.5038   17.2923   18.7037   21.8055   25.6027
   25.8160   32.4659   38.4382   41.2582   56.6015   66.8149
  50  1  -13.4283  -10.1263   -7.8280   -6.5579   -0.9302   -0.0232    0.0641    3.3428    5.1195    5.4413
           9.8175   10.4857   11.8090   12.1877   15.2532   16.4081   17.3540   18.7907   21.9240   25.6094
   25.9306   32.5888   38.4463   41.4801   56.5499   67.3421
  51  1  -13.4635  -10.0958   -7.8080   -6.5129   -0.9467   -0.0368    0.1000    3.2353    5.1872    5.3961
           9.7705   10.4134   11.7843   12.2981   15.1893   16.3113   17.4159   18.8816   22.0423   25.6069
   26.0515   32.7107   38.4512   41.7234   56.4775   67.8823
  52  1  -13.4981  -10.0674   -7.7851   -6.4674   -0.9647   -0.0713    0.1611    3.1238    5.2531    5.3572
           9.7160   10.3409   11.7398   12.4327   15.1277   16.2146   17.4777   18.9759   22.1605   25.6003
   26.1735   32.8315   38.4541   41.9871   56.3905   68.4240
  53  1  -13.5323  -10.0409   -7.7593   -6.4215   -0.9837   -0.1093    0.2297    3.0090    5.2958    5.3453
           9.6548   10.2685   11.6865   12.5792   15.0684   16.1189   17.5391   19.0730   22.2784   25.5913
   26.2946   32.9513   38.4556   42.2700   56.2938   68.9565
  54  1  -13.5658  -10.0166   -7.7304   -6.3752   -1.0033   -0.1477    0.3021    2.8915    5.2741    5.4009
           9.5877   10.1967   11.6287   12.7319   15.0112   16.0251   17.5999   19.1723   22.3958   25.5804
   26.4142   33.0699   38.4567   42.5710   56.1915   69.4701
  55  1  -13.5988   -9.9945   -7.6984   -6.3288   -1.0233   -0.1857    0.3773    2.7721    5.2443    5.4671
           9.5156   10.1254   11.5688   12.8877   14.9559   15.9344   17.6601   19.2735   22.5128   25.5681
   26.5316   33.1870   38.4579   42.8890   56.0870   69.9559
  56  1  -13.6312   -9.9745   -7.6631   -6.2823   -1.0434   -0.2229    0.4546    2.6512    5.2157    5.5341
           9.4389   10.0547   11.5079   13.0447   14.9022   15.8478   17.7195   19.3761   22.6293   25.5544
   26.6465   33.3025   38.4599   43.2229   55.9830   70.4062
  57  1  -13.6629   -9.9566   -7.6247   -6.2358   -1.0637   -0.2593    0.5336    2.5293    5.1888    5.6008
           9.3583    9.9847   11.4467   13.2011   14.8496   15.7666   17.7780   19.4797   22.7453   25.5395
   26.7587   33.4158   38.4633   43.5714   55.8818   70.8143
  58  1  -13.6941   -9.9408   -7.5832   -6.1894   -1.0839   -0.2948    0.6140    2.4072    5.1636    5.6667
           9.2742    9.9153   11.3859   13.3550   14.7984   15.6922   17.8356   19.5841   22.8608   25.5235
   26.8680   33.5266   38.4686   43.9332   55.7851   71.1744
  59  1  -13.7245   -9.9270   -7.5385   -6.1432   -1.1041   -0.3292    0.6955    2.2851    5.1399    5.7316
           9.1872    9.8468   11.3259   13.5038   14.7491   15.6259   17.8921   19.6889   22.9758   25.5065
   26.9743   33.6341   38.4765   44.3069   55.6944   71.4820
  60  1  -13.7543   -9.9151   -7.4908   -6.0973   -1.1244   -0.3625    0.7778    2.1639    5.1175    5.7953
           9.0974    9.7791   11.2672   13.6439   14.7039   15.5690   17.9475   19.7940   23.0903   25.4885
   27.0774   33.7377   38.4874   44.6908   55.6112   71.7341
  61  1  -13.7834   -9.9051   -7.4402   -6.0517   -1.1447   -0.3946    0.8604    2.0441    5.0962    5.8574
           9.0053    9.7126   11.2100   13.7691   14.6673   15.5224   18.0017   19.8991   23.2043   25.4698
   27.1772   33.8363   38.5022   45.0830   55.5364   71.9288
  62  1  -13.8119   -9.8968   -7.3868   -6.0066   -1.1652   -0.4255    0.9424    1.9268    5.0759    5.9177
           8.9110    9.6476   11.1546   13.8697   14.6480   15.4872   18.0545   20.0040   23.3177   25.4503
   27.2737   33.9290   38.5214   45.4812   55.4710   72.0660
  63  1  -13.8396   -9.8902   -7.3307   -5.9621   -1.1859   -0.4551    1.0224    1.8138    5.0564    5.9760
           8.8147    9.5846   11.1012   13.9329   14.6575   15.4642   18.1058   20.1085   23.4307   25.4302
   27.3669   34.0145   38.5460   45.8830   55.4159   72.1471
  64  1  -13.8666   -9.8850   -7.2720   -5.9181   -1.2071   -0.4834    1.0972    1.7084    5.0377    6.0319
           8.7166    9.5240   11.0499   13.9501   14.7033   15.4541   18.1557   20.2126   23.5430   25.4096
   27.4568   34.0916   38.5769   46.2852   55.3716   72.1752
  65  1  -13.8928   -9.8813   -7.2109   -5.8749   -1.2289   -0.5101    1.1590    1.6185    5.0196    6.0851
           8.6167    9.4663   11.0008   13.9252   14.7799   15.4582   18.2040   20.3161   23.6547   25.3887
   27.5435   34.1587   38.6149   46.6845   55.3388   72.1554
  66  1  -13.9184   -9.8788   -7.1476   -5.8323   -1.2514   -0.5353    1.1900    1.5623    5.0021    6.1354
           8.5151    9.4123   10.9540   13.8698   14.8733   15.4785   18.2507   20.4189   23.7654   25.3679
   27.6269   34.2144   38.6612   47.0770   55.3177   72.0941
  67  1  -13.9432   -9.8774   -7.0822   -5.7906   -1.2750   -0.5589    1.1682    1.5621    4.9851    6.1825
           8.4119    9.3624   10.9095   13.7948   14.9699   15.5178   18.2958   20.5208   23.8750   25.3474
   27.7073   34.2572   38.7168   47.4584   55.3083   71.9997
  68  1  -13.9672   -9.8770   -7.0148   -5.7498   -1.2998   -0.5807    1.1010    1.6105    4.9686    6.2259
           8.3071    9.3175   10.8672   13.7069   15.0597   15.5786   18.3392   20.6219   23.9828   25.3279
   27.7846   34.2855   38.7828   47.8241   55.3102   71.8822
  69  1  -13.9905   -9.8776   -6.9456   -5.7099   -1.3261   -0.6008    1.0128    1.6835    4.9525    6.2655
           8.2010    9.2779   10.8272   13.6105   15.1376   15.6616   18.3810   20.7220   24.0883   25.3100
   27.8591   34.2981   38.8603   48.1693   55.3223   71.7529
  70  1  -14.0131   -9.8789   -6.8748   -5.6710   -1.3542   -0.6190    0.9171    1.7678    4.9368    6.3009
           8.0935    9.2443   10.7893   13.5080   15.2038   15.7637   18.4212   20.8211   24.1902   25.2948
   27.9308   34.2936   38.9502   48.4895   55.3426   71.6242
  71  1  -14.0348   -9.8809   -6.8025   -5.6331   -1.3842   -0.6352    0.8196    1.8580    4.9215    6.3320
           7.9849    9.2171   10.7536   13.4011   15.2616   15.8796   18.4600   20.9192   24.2870   25.2840
   27.9998   34.2711   39.0533   48.7802   55.3682   71.5095
  72  1  -14.0558   -9.8835   -6.7289   -5.5964   -1.4164   -0.6495    0.7227    1.9518    4.9065    6.3585
           7.8754    9.1967   10.7199   13.2909   15.3147   16.0041   18.4977   21.0162   24.3762   25.2798
   28.0665   34.2298   39.1707   49.0381   55.3950   71.4224
  73  1  -14.0760   -9.8866   -6.6542   -5.5608   -1.4510   -0.6618    0.6279    2.0481    4.8919    6.3803
           7.7653    9.1832   10.6882   13.1781   15.3662   16.1329   18.5344   21.1120   24.4548   25.2853
   28.1308   34.1691   39.3028   49.2605   55.4180   71.3761
  74  1  -14.0954   -9.8901   -6.5786   -5.5264   -1.4882   -0.6722    0.5359    2.1463    4.8777    6.3972
           7.6548    9.1770   10.6584   13.0633   15.4180   16.2631   18.5705   21.2067   24.5190   25.3041
   28.1930   34.0891   39.4505   49.4462   55.4314   71.3828
  75  1  -14.1140   -9.8939   -6.5021   -5.4933   -1.5281   -0.6806    0.4473    2.2460    4.8638    6.4090
           7.5446    9.1778   10.6304   12.9469   15.4711   16.3925   18.6065   21.3002   24.5653   25.3393
   28.2532   33.9896   39.6142   49.5950   55.4291   71.4529
  76  1  -14.1318   -9.8980   -6.4251   -5.4614   -1.5707   -0.6872    0.3625    2.3471    4.8502    6.4155
           7.4352    9.1858   10.6042   12.8293   15.5264   16.5193   18.6430   21.3925   24.5922   25.3922
   28.3117   33.8713   39.7946   49.7081   55.4057   71.5942
  77  1  -14.1488   -9.9023   -6.3476   -5.4309   -1.6161   -0.6920    0.2817    2.4495    4.8371    6.4164
           7.3274    9.2006   10.5796   12.7107   15.5841   16.6420   18.6808   21.4836   24.6004   25.4618
   28.3687   33.7347   39.9923   49.7875   55.3566   71.8111
  78  1  -14.1650   -9.9067   -6.2700   -5.4017   -1.6641   -0.6952    0.2052    2.5529    4.8243    6.4110
           7.2225    9.2219   10.5567   12.5914   15.6445   16.7592   18.7206   21.5735   24.5924   25.5451
   28.4244   33.5809   40.2080   49.8361   55.2789   72.1046
  79  1  -14.1804   -9.9111   -6.1923   -5.3740   -1.7148   -0.6968    0.1332    2.6574    4.8120    6.3982
           7.1220    9.2495   10.5353   12.4717   15.7077   16.8695   18.7634   21.6621   24.5714   25.6386
   28.4790   33.4110   40.4424   49.8572   55.1713   72.4721
  80  1  -14.1950   -9.9156   -6.1150   -5.3477   -1.7678   -0.6969    0.0656    2.7629    4.8002    6.3762
           7.0283    9.2829   10.5154   12.3516   15.7736   16.9716   18.8104   21.7495   24.5398   25.7390
   28.5328   33.2266   40.6962   49.8541   55.0337   72.9078
  81  1  -14.2088   -9.9201   -6.0382   -5.3228   -1.8229   -0.6956    0.0025    2.8694    4.7888    6.3430
           6.9442    9.3216   10.4970   12.2314   15.8422   17.0640   18.8624   21.8357   24.4998   25.8438
   28.5860   33.0293   40.9704   49.8306   54.8675   73.4035
  82  1  -14.2217   -9.9244   -5.9621   -5.2995   -1.8797   -0.6932   -0.0562    2.9768    4.7779    6.2961
           6.8723    9.3654   10.4799   12.1114   15.9132   17.1455   18.9206   21.9207   24.4526   25.9510
   28.6391   32.8210   41.2657   49.7902   54.6743   73.9487
  83  1  -14.2338   -9.9287   -5.8872   -5.2776   -1.9378   -0.6896   -0.1106    3.0851    4.7676    6.2343
           6.8147    9.4137   10.4642   11.9916   15.9865   17.2151   18.9854   22.0046   24.3991   26.0587
   28.6924   32.6038   41.5829   49.7361   54.4561   74.5319
  84  1  -14.2451   -9.9327   -5.8137   -5.2574   -1.9966   -0.6849   -0.1609    3.1943    4.7579    6.1579
           6.7712    9.4663   10.4498   11.8722   16.0618   17.2720   19.0572   22.0875   24.3398   26.1658
   28.7462   32.3799   41.9226   49.6714   54.2148   75.1408
  85  1  -14.2555   -9.9366   -5.7421   -5.2388   -2.0556   -0.6793   -0.2073    3.3045    4.7488    6.0692
           6.7400    9.5226   10.4367   11.7536   16.1389   17.3160   19.1356   22.1695   24.2753   26.2708
   28.8010   32.1516   42.2852   49.5989   53.9520   75.7626
  86  1  -14.2652   -9.9403   -5.6727   -5.2218   -2.1141   -0.6728   -0.2500    3.4155    4.7403    5.9709
           6.7184    9.5825   10.4248   11.6358   16.2173   17.3470   19.2200   22.2509   24.2056   26.3727
   28.8574   31.9211   42.6710   49.5207   53.6691   76.3850
  87  1  -14.2739   -9.9437   -5.6059   -5.2066   -2.1715   -0.6655   -0.2893    3.5273    4.7326    5.8658
           6.7041    9.6457   10.4141   11.5192   16.2968   17.3656   19.3089   22.3319   24.1310   26.4703
   28.9160   31.6909   43.0795   49.4385   53.3676   76.9958
  88  1  -14.2819   -9.9469   -5.5423   -5.1931   -2.2269   -0.6574   -0.3254    3.6401    4.7255    5.7558
           6.6951    9.7119   10.4046   11.4039   16.3768   17.3725   19.4005   22.4128   24.0518   26.5626
   28.9773   31.4632   43.5099   49.3531   53.0489   77.5835
  89  1  -14.2890   -9.9498   -5.4823   -5.1816   -2.2797   -0.6485   -0.3586    3.7536    4.7191    5.6424
           6.6899    9.7810   10.3963   11.2901   16.4570   17.3685   19.4925   22.4940   23.9681   26.6487
   29.0422   31.2401   43.9606   49.2645   52.7154   78.1375
  90  1  -14.2953   -9.9524   -5.4265   -5.1721   -2.3289   -0.6388   -0.3892    3.8680    4.7135    5.5266
           6.6874    9.8527   10.3893   11.1782   16.5370   17.3546   19.5827   22.5759   23.8803   26.7274
   29.1114   31.0236   44.4292   49.1712   52.3706   78.6483
  91  1  -14.3008   -9.9546   -5.3753   -5.1647   -2.3739   -0.6283   -0.4173    3.9831    4.7086    5.4093
           6.6867    9.9270   10.3835   11.0683   16.6163   17.3317   19.6682   22.6590   23.7889   26.7978
   29.1859   30.8153   44.9124   49.0700   52.0202   79.1074
  92  1  -14.3054   -9.9566   -5.3292   -5.1598   -2.4137   -0.6169   -0.4431    4.0989    4.7044    5.2910
           6.6873   10.0034   10.3792   10.9607   16.6943   17.3007   19.7465   22.7437   23.6944   26.8591
   29.2667   30.6169   45.4056   48.9548   51.6736   79.5075
  93  1  -14.3091   -9.9582   -5.2886   -5.1575   -2.4475   -0.6047   -0.4670    4.2153    4.7011    5.1722
           6.6886   10.0814   10.3768   10.8558   16.7707   17.2623   19.8150   22.8306   23.5975   26.9105
   29.3547   30.4293   45.9029   48.8155   51.3446   79.8426
  94  1  -14.3121   -9.9594   -5.2537   -5.1583   -2.4747   -0.5916   -0.4891    4.3320    4.6985    5.0532
           6.6900   10.1594   10.3776   10.7540   16.8450   17.2174   19.8711   22.9198   23.4990   26.9512
   29.4510   30.2535   46.3968   48.6381   51.0532   80.1080
  95  1  -14.3142   -9.9603   -5.2246   -5.1625   -2.4946   -0.5775   -0.5095    4.4486    4.6970    4.9347
           6.6913   10.2326   10.3859   10.6559   16.9166   17.1667   19.9129   23.0116   23.3997   26.9808
   29.5567   30.0900   46.8775   48.4068   50.8231   80.3001
  96  1  -14.3154   -9.9609   -5.2014   -5.1708   -2.5067   -0.5623   -0.5285    4.5624    4.6973    4.8184
           6.6922   10.2862   10.4153   10.5628   16.9850   17.1106   19.9386   23.1059   23.3005   26.9987
   29.6727   29.9388   47.3332   48.1105   50.6760   80.4163
  97  1  -14.3158   -9.9611   -5.1835   -5.1835   -2.5108   -0.5460   -0.5460    4.6389    4.7192    4.7192
           6.6925   10.3036   10.4787   10.4787   17.0499   17.0499   19.9473   23.2024   23.2024   27.0046
   29.7999   29.7999   47.7491   47.7492   50.6255   80.4552
  98  1  -14.4188   -9.7606   -5.1549   -5.1549   -2.4750   -0.5292   -0.5292    4.5018    4.5018    4.5062
           6.6906   10.2673   10.8053   10.8053   16.7469   16.7469   19.8191   23.2521   23.2521   27.4338
   29.7851   29.7851   48.5256   49.2647   49.2648   79.5355
  99  1  -14.5214   -9.5507   -5.1233   -5.1233   -2.4358   -0.5142   -0.5142    4.2989    4.2989    4.3445
           6.7213   10.2015   11.1048   11.1048   16.4788   16.4788   19.7330   23.2923   23.2923   27.8514
   29.8100   29.8100   46.5621   50.5996   50.5996   78.3711
 100  1  -14.6227   -9.3323   -5.0888   -5.0888   -2.3933   -0.5022   -0.5022    4.1117    4.1117    4.1583
           6.7797   10.1071   11.3627   11.3627   16.2616   16.2616   19.6866   23.3236   23.3236   28.2564
   29.8719   29.8719   44.7440   51.6948   51.6949   76.9924
 101  1  -14.7221   -9.1062   -5.0514   -5.0514   -2.3477   -0.4944   -0.4944    3.9415    3.9415    3.9526
           6.8598    9.9868   11.5617   11.5617   16.1135   16.1135   19.6760   23.3467   23.3467   28.6478
   29.9684   29.9684   43.0760   52.5085   52.5086   75.4282
 102  1  -14.8191   -8.8732   -5.0113   -5.0113   -2.2992   -0.4920   -0.4920    3.7318    3.7896    3.7896
           6.9557    9.8442   11.6846   11.6846   16.0522   16.0522   19.6964   23.3625   23.3625   29.0247
   30.0977   30.0977   41.5595   53.0209   53.0209   73.7035
 103  1  -14.9130   -8.6339   -4.9684   -4.9684   -2.2478   -0.4965   -0.4965    3.4996    3.6571    3.6571
           7.0616    9.6840   11.7198   11.7198   16.0890   16.0890   19.7427   23.3717   23.3717   29.3865
   30.2582   30.2582   40.1930   53.2359   53.2359   71.8398
 104  1  -15.0036   -8.3888   -4.9229   -4.9229   -2.1939   -0.5088   -0.5088    3.2585    3.5451    3.5451
           7.1721    9.5112   11.6676   11.6676   16.2232   16.2232   19.8097   23.3749   23.3749   29.7329
   30.4486   30.4486   38.9729   53.1786   53.1786   69.8557
 105  1  -15.0905   -8.1385   -4.8748   -4.8748   -2.1375   -0.5300   -0.5300    3.0106    3.4546    3.4546
           7.2825    9.3312   11.5393   11.5393   16.4425   16.4425   19.8927   23.3726   23.3726   30.0634
   30.6675   30.6675   37.8938   52.8895   52.8896   67.7687
 106  1  -15.1734   -7.8834   -4.8244   -4.8244   -2.0791   -0.5606   -0.5606    2.7574    3.3858    3.3858
           7.3884    9.1492   11.3524   11.3524   16.7282   16.7282   19.9880   23.3652   23.3652   30.3775
   30.9136   30.9136   36.9486   52.4180   52.4181   65.5980
 107  1  -15.2522   -7.6241   -4.7718   -4.7718   -2.0189   -0.6009   -0.6009    2.5000    3.3390    3.3390
           7.4860    8.9704   11.1241   11.1241   17.0613   17.0613   20.0927   23.3529   23.3529   30.6745
   31.1855   31.1855   36.1299   51.8153   51.8154   63.3667
 108  1  -15.3266   -7.3611   -4.7171   -4.7171   -1.9572   -0.6506   -0.6506    2.2392    3.3136    3.3136
           7.5723    8.7998   10.8690   10.8690   17.4256   17.4256   20.2048   23.3359   23.3359   30.9525
   31.4813   31.4813   35.4300   51.1297   51.1298   61.1038
 109  1  -15.3965   -7.0950   -4.6608   -4.6608   -1.8948   -0.7091   -0.7091    1.9758    3.3087    3.3087
           7.6457    8.6420   10.5980   10.5980   17.8081   17.8081   20.3233   23.3140   23.3140   31.2081
   31.7984   31.7984   34.8426   50.4034   50.4034   58.8445
 110  1  -15.4615   -6.8265   -4.6030   -4.6030   -1.8321   -0.7753   -0.7753    1.7105    3.3230    3.3230
           7.7057    8.5012   10.3192   10.3192   18.1987   18.1987   20.4474   23.2872   23.2872   31.4346
   32.1337   32.1337   34.3643   49.6708   49.6708   56.6289
 111  1  -15.5217   -6.5562   -4.5443   -4.5443   -1.7699   -0.8477   -0.8477    1.4441    3.3546    3.3546
           7.7540    8.3806   10.0388   10.0388   18.5896   18.5896   20.5768   23.2552   23.2552   31.6195
   32.4831   32.4831   33.9980   48.9588   48.9588   54.4999
 112  1  -15.5767   -6.2850   -4.4850   -4.4850   -1.7092   -0.9246   -0.9246    1.1774    3.4015    3.4015
           7.7943    8.2828    9.7614    9.7614   18.9744   18.9744   20.7106   23.2175   23.2175   31.7441
   32.8415   32.8415   33.7539   48.2870   48.2870   52.5001
 113  1  -15.6264   -6.0141   -4.4258   -4.4258   -1.6511   -1.0044   -1.0044    0.9118    3.4612    3.4612
           7.8324    8.2090    9.4909    9.4909   19.3480   19.3480   20.8473   23.1737   23.1737   31.7897
   33.2029   33.2029   33.6435   47.6691   47.6691   50.6687
 114  1  -15.6707   -5.7448   -4.3673   -4.3673   -1.5970   -1.0851   -1.0851    0.6487    3.5313    3.5313
           7.8733    8.1620    9.2305    9.2305   19.7067   19.7067   20.9851   23.1234   23.1234   31.7553
   33.5602   33.5602   33.6627   47.1138   47.1138   49.0401
 115  1  -15.7094   -5.4788   -4.3104   -4.3104   -1.5484   -1.1648   -1.1648    0.3904    3.6089    3.6089
           7.9143    8.1526    8.9834    8.9834   20.0472   20.0472   21.1211   23.0659   23.0659   31.6642
   33.7846   33.9059   33.9059   46.6260   46.6260   47.6430
 116  1  -15.7423   -5.2185   -4.2561   -4.2561   -1.5074   -1.2414   -1.2414    0.1401    3.6910    3.6910
           7.9374    8.2058    8.7526    8.7526   20.3672   20.3672   21.2519   23.0007   23.0007   31.5463
   33.9777   34.2319   34.2319   46.2074   46.2074   46.5001
 117  1  -15.7695   -4.9670   -4.2053   -4.2053   -1.4763   -1.3131   -1.3131   -0.0975    3.7741    3.7741
           7.9369    8.3318    8.5414    8.5414   20.6645   20.6645   21.3739   22.9274   22.9274   31.4226
   34.2185   34.5304   34.5304   45.6292   45.8572   45.8573
 118  1  -15.7909   -4.7287   -4.1594   -4.1594   -1.4582   -1.3779   -1.3779   -0.3159    3.8545    3.8545
           7.9263    8.3532    8.3532    8.5161   20.9375   20.9375   21.4831   22.8462   22.8462   31.3054
   34.4889   34.7942   34.7942   45.0408   45.5729   45.5729
 119  1  -15.8068   -4.5101   -4.1195   -4.1195   -1.4561   -1.4339   -1.4339   -0.5058    3.9283    3.9283
           7.9143    8.1920    8.1920    8.7403   21.1838   21.1838   21.5760   22.7579   22.7579   31.2017
   34.7686   35.0170   35.0170   44.7321   45.3504   45.3504
 120  1  -15.8178   -4.3199   -4.0870   -4.0870   -1.4794   -1.4794   -1.4717   -0.6571    3.9913    3.9913
           7.9040    8.0615    8.0615    8.9789   21.3997   21.3997   21.6498   22.6651   22.6651   31.1160
   35.0303   35.1939   35.1939   44.6715   45.1850   45.1850
 121  1  -15.8245   -4.1701   -4.0630   -4.0630   -1.5128   -1.5128   -1.5005   -0.7621    4.0394    4.0394
           7.8963    7.9657    7.9657    9.1949   21.5777   21.5777   21.7026   22.5748   22.5748   31.0521
   35.2425   35.3213   35.3213   44.7794   45.0721   45.0721
 122  1  -15.8280   -4.0743   -4.0485   -4.0485   -1.5330   -1.5330   -1.5285   -0.8207    4.0692    4.0692
           7.8917    7.9079    7.9079    9.3452   21.7012   21.7012   21.7338   22.5031   22.5031   31.0132
   35.3777   35.3970   35.3970   44.9278   45.0074   45.0074
 123  1  -15.8289   -4.0443   -4.0441   -4.0441   -1.5391   -1.5391   -1.5390   -0.8375    4.0783    4.0783
           7.8903    7.8904    7.8904    9.3941   21.7429   21.7429   21.7431   22.4769   22.4769   31.0013
   35.4197   35.4198   35.4198   44.9878   44.9883   44.9883
 124  1  -15.8276   -4.0844   -4.0500   -4.0500   -1.5309   -1.5309   -1.5252   -0.8149    4.0661    4.0661
           7.8921    7.9139    7.9139    9.3289   21.6875   21.6875   21.7306   22.5114   22.5114   31.0172
   35.3635   35.3893   35.3893   44.9091   45.0140   45.0140
 125  1  -15.8238   -4.1889   -4.0659   -4.0659   -1.5087   -1.5087   -1.4959   -0.7498    4.0334    4.0334
           7.8972    7.9774    7.9774    9.1664   21.5546   21.5546   21.6962   22.5874   22.5874   31.0600
   35.2157   35.3059   35.3059   44.7577   45.0855   45.0855
 126  1  -15.8165   -4.3455   -4.0912   -4.0912   -1.4735   -1.4735   -1.4684   -0.6378    3.9829    3.9829
           7.9053    8.0785    8.0785    8.9445   21.3703   21.3703   21.6403   22.6787   22.6787   31.1272
   34.9944   35.1711   35.1711   44.6673   45.2058   45.2058
 127  1  -15.8048   -4.5405   -4.1249   -4.1249   -1.4553   -1.4263   -1.4263   -0.4802    3.9181    3.9181
           7.9160    8.2137    8.2137    8.7060   21.1496   21.1496   21.5636   22.7712   22.7712   31.2158
   34.7282   34.9872   34.9872   44.7605   45.3792   45.3792
 128  1  -15.7881   -4.7625   -4.1657   -4.1657   -1.4599   -1.3689   -1.3689   -0.2855    3.8431    3.8431
           7.9281    8.3791    8.3791    8.4862   20.8992   20.8992   21.4681   22.8586   22.8586   31.3218
   34.4483   34.7581   34.7581   45.1090   45.6104   45.6104
 129  1  -15.7659   -5.0030   -4.2125   -4.2125   -1.4801   -1.3030   -1.3030   -0.0639    3.7620    3.7620
           7.9379    8.3093    8.5709    8.5709   20.6226   20.6226   21.3568   22.9386   22.9386   31.4405
   34.1811   34.4888   34.4888   45.7389   45.9042   45.9042
 130  1  -15.7379   -5.2560   -4.2638   -4.2638   -1.5129   -1.2305   -1.2305    0.1760    3.6789    3.6789
           7.9357    8.1933    8.7852    8.7852   20.3218   20.3218   21.2333   23.0107   23.0107   31.5643
   33.9461   34.1858   34.1858   46.2642   46.2642   46.6504
 131  1  -15.7041   -5.5174   -4.3186   -4.3186   -1.5551   -1.1533   -1.1533    0.4277    3.5973    3.5973
           7.9089    8.1507    9.0185    9.0185   19.9987   19.9987   21.1014   23.0747   23.0747   31.6798
   33.7617   33.8565   33.8565   46.6929   46.6930   47.8316
 132  1  -15.6646   -5.7840   -4.3758   -4.3758   -1.6046   -1.0733   -1.0733    0.6868    3.5206    3.5206
           7.8671    8.1669    9.2678    9.2678   19.6554   19.6554   20.9650   23.1312   23.1312   31.7645
   33.5086   33.5086   33.6527   47.1907   47.1908   49.2641
 133  1  -15.6195   -6.0536   -4.4344   -4.4344   -1.6594   -0.9927   -0.9927    0.9504    3.4518    3.4518
           7.8267    8.2182    9.5298    9.5298   19.2943   19.2943   20.8272   23.1805   23.1805   31.7883
   33.1502   33.1502   33.6512   47.7555   47.7555   50.9242
 134  1  -15.5690   -6.3246   -4.4937   -4.4937   -1.7179   -0.9132   -0.9132    1.2163    3.3938    3.3938
           7.7887    8.2956    9.8016    9.8016   18.9188   18.9188   20.6908   23.2234   23.2234   31.7305
   32.7889   32.7889   33.7814   48.3819   48.3820   52.7824
 135  1  -15.5132   -6.5957   -4.5529   -4.5529   -1.7789   -0.8368   -0.8368    1.4830    3.3490    3.3490
           7.7475    8.3969   10.0796   10.0796   18.5328   18.5328   20.5576   23.2602   23.2602   31.5957
   32.4314   32.4314   34.0442   49.0606   49.0606   54.8037
 136  1  -15.4523   -6.8658   -4.6115   -4.6115   -1.8412   -0.7652   -0.7652    1.7493    3.3198    3.3198
           7.6977    8.5205   10.3601   10.3601   18.1415   18.1415   20.4290   23.2915   23.2915   31.4037
   32.0838   32.0838   34.4273   49.7770   49.7771   56.9480
 137  1  -15.3866   -7.1341   -4.6691   -4.6691   -1.9039   -0.7001   -0.7001    2.0144    3.3082    3.3082
           7.6358    8.6641   10.6382   10.6382   17.7515   17.7515   20.3056   23.3175   23.3175   31.1724
   31.7509   31.7509   34.9215   50.5106   50.5106   59.1726
 138  1  -15.3160   -7.3997   -4.7252   -4.7252   -1.9663   -0.6428   -0.6428    2.2774    3.3160    3.3160
           7.5605    8.8241   10.9075   10.9075   17.3710   17.3710   20.1880   23.3387   23.3387   30.9132
   31.4367   31.4367   35.5251   51.2333   51.2333   61.4349
 139  1  -15.2410   -7.6622   -4.7796   -4.7796   -2.0277   -0.5944   -0.5944    2.5378    3.3445    3.3445
           7.4724    8.9961   11.1594   11.1594   17.0103   17.0103   20.0769   23.3550   23.3550   30.6323
   31.1443   31.1443   36.2419   51.9096   51.9096   63.6952
 140  1  -15.1616   -7.9209   -4.8319   -4.8319   -2.0877   -0.5555   -0.5555    2.7947    3.3945    3.3945
           7.3734    9.1757   11.3826   11.3826   16.6831   16.6831   19.9734   23.3666   23.3666   30.3327
   30.8760   30.8760   37.0785   52.4962   52.4963   65.9193
 141  1  -15.0780   -8.1753   -4.8820   -4.8820   -2.1459   -0.5263   -0.5263    3.0472    3.4664    3.4664
           7.2666    9.3577   11.5621   11.5621   16.4059   16.4059   19.8797   23.3733   23.3733   30.0162
   30.6338   30.6338   38.0428   52.9443   52.9444   68.0791
 142  1  -14.9906   -8.4249   -4.9297   -4.9297   -2.2019   -0.5065   -0.5065    3.2942    3.5602    3.5602
           7.1559    9.5370   11.6803   11.6803   16.1979   16.1979   19.7988   23.3748   23.3748   29.6833
   30.4190   30.4190   39.1421   53.2025   53.2025   70.1522
 143  1  -14.8995   -8.6692   -4.9748   -4.9748   -2.2555   -0.4954   -0.4954    3.5341    3.6752    3.6752
           7.0457    9.7083   11.7203   11.7203   16.0773   16.0773   19.7345   23.3707   23.3707   29.3347
   30.2329   30.2329   40.3833   53.2223   53.2223   72.1198
 144  1  -14.8051   -8.9076   -5.0173   -5.0173   -2.3065   -0.4920   -0.4920    3.7648    3.8106    3.8106
           6.9409    9.8662   11.6719   11.6719   16.0551   16.0552   19.6917   23.3606   23.3606   28.9706
   30.0769   30.0769   41.7715   52.9650   52.9650   73.9644
 145  1  -14.7078   -9.1397   -5.0570   -5.0570   -2.3546   -0.4952   -0.4952    3.9652    3.9652    3.9836
           6.8470   10.0058   11.5370   11.5370   16.1300   16.1300   19.6755   23.3438   23.3438   28.5915
   29.9523   29.9523   43.3100   52.4083   52.4083   75.6671
 146  1  -14.6080   -9.3647   -5.0940   -5.0940   -2.3997   -0.5037   -0.5037    4.1380    4.1380    4.1868
           6.7696   10.1226   11.3283   11.3283   16.2894   16.2894   19.6910   23.3195   23.3195   28.1981
   29.8607   29.8607   45.0001   51.5517   51.5518   77.2059
 147  1  -14.5064   -9.5819   -5.1281   -5.1281   -2.4417   -0.5162   -0.5162    4.3275    4.3275    4.3697
           6.7149   10.2129   11.0633   11.0633   16.5152   16.5152   19.7430   23.2870   23.2870   27.7912
   29.8040   29.8040   46.8398   50.4184   50.4185   78.5551
 148  1  -14.4037   -9.7905   -5.1592   -5.1592   -2.4804   -0.5316   -0.5316    4.5275    4.5326    4.5326
           6.6887   10.2745   10.7591   10.7591   16.7893   16.7893   19.8351   23.2455   23.2455   27.3718
   29.7847   29.7847   48.8239   49.0532   49.0532   79.6857
 149  1  -14.3008   -9.9895   -5.1875   -5.1875   -2.5157   -0.5486   -0.5486    4.6556    4.7521    4.7521
           6.6956   10.3064   10.4295   10.4295   17.0962   17.0962   19.9696   23.1943   23.1943   26.9411
   29.8055   29.8055   47.5168   47.5168   50.9427   80.5671
 150  1  -14.1990  -10.1774   -5.2128   -5.2128   -2.5476   -0.5663   -0.5663    4.7519    4.9849    4.9849
           6.7372   10.0848   10.0848   10.3097   17.4230   17.4230   20.1474   23.1329   23.1329   26.5006
   29.8694   29.8694   45.8783   45.8784   53.1814   81.1701
 151  1  -14.0996  -10.3529   -5.2351   -5.2351   -2.5758   -0.5838   -0.5838    4.8178    5.2298    5.2298
           6.8106    9.7326    9.7326   10.2871   17.7586   17.7586   20.3677   23.0614   23.0614   26.0519
   29.9794   29.9794   44.2077   44.2077   55.5184   81.4699
 152  1  -14.0047  -10.5139   -5.2545   -5.2545   -2.6004   -0.6003   -0.6003    4.8579    5.4858    5.4858
           6.9086    9.3782    9.3782   10.2429   18.0923   18.0923   20.6284   22.9805   22.9805   25.5971
   30.1384   30.1384   42.5697   42.5698   57.9243   81.4507
 153  1  -13.9164  -10.6580   -5.2708   -5.2708   -2.6213   -0.6153   -0.6153    4.8788    5.7515    5.7515
[...]
           9.6301   10.4291   11.5001   12.1599   14.5806   16.8262   18.3310   18.3603   20.2642   20.9570
   26.3436   29.1138   36.4938   40.6019   44.6899   71.6148
 430  1  -12.2724  -11.4080   -7.9701   -6.7553   -2.9422   -1.1873    3.8231    4.4306    5.3146    6.0450
           9.5938   10.3848   11.4416   12.0988   14.6456   16.8435   18.2826   18.4138   20.2443   20.9164
   26.3854   29.0996   36.4908   40.5504   44.6927   70.9206
 431  1  -12.2701  -11.4128   -7.9476   -6.7639   -2.9527   -1.2519    3.8671    4.4691    5.3631    6.0872
           9.5576   10.3405   11.3829   12.0377   14.7106   16.8618   18.2292   18.4720   20.2233   20.8765
   26.4261   29.0856   36.4910   40.5002   44.6983   70.2194
 432  1  -12.2682  -11.4174   -7.9247   -6.7723   -2.9630   -1.3160    3.9111    4.5075    5.4117    6.1294
           9.5215   10.2964   11.3241   11.9767   14.7755   16.8811   18.1766   18.5286   20.2012   20.8373
   26.4656   29.0718   36.4942   40.4514   44.7066   69.5124
 433  1  -12.2665  -11.4218   -7.9013   -6.7806   -2.9731   -1.3795    3.9550    4.5457    5.4605    6.1717
           9.4854   10.2525   11.2652   11.9157   14.8401   16.9015   18.1252   18.5833   20.1782   20.7989
   26.5040   29.0583   36.5005   40.4038   44.7176   68.8010
 434  1  -12.2652  -11.4258   -7.8776   -6.7888   -2.9830   -1.4424    3.9989    4.5837    5.5095    6.2139
           9.4494   10.2086   11.2061   11.8549   14.9046   16.9229   18.0750   18.6357   20.1545   20.7613
   26.5412   29.0450   36.5099   40.3577   44.7311   68.0865
 435  1  -12.2642  -11.4297   -7.8534   -6.7967   -2.9928   -1.5048    4.0428    4.6215    5.5586    6.2561
           9.4135   10.1650   11.1470   11.7943   14.9686   16.9453   18.0262   18.6858   20.1302   20.7244
   26.5770   29.0321   36.5224   40.3128   44.7469   67.3701
 436  1  -12.2635  -11.4333   -7.8290   -6.8045   -3.0024   -1.5665    4.0867    4.6591    5.6079    6.2983
           9.3778   10.1216   11.0878   11.7338   15.0323   16.9689   17.9788   18.7332   20.1057   20.6884
   26.6115   29.0196   36.5379   40.2693   44.7651   66.6530
 437  1  -12.2630  -11.4367   -7.8042   -6.8122   -3.0118   -1.6276    4.1304    4.6964    5.6574    6.3404
           9.3421   10.0783   11.0285   11.6735   15.0955   16.9934   17.9328   18.7779   20.0810   20.6531
   26.6446   29.0075   36.5565   40.2271   44.7854   65.9364
 438  1  -12.2628  -11.4399   -7.7791   -6.8196   -3.0210   -1.6881    4.1741    4.7334    5.7070    6.3824
           9.3066   10.0353   10.9692   11.6135   15.1581   17.0190   17.8883   18.8195   20.0566   20.6187
   26.6763   28.9958   36.5782   40.1862   44.8076   65.2215
 439  1  -12.2628  -11.4430   -7.7537   -6.8269   -3.0300   -1.7478    4.2177    4.7702    5.7567    6.4244
           9.2713    9.9926   10.9099   11.5538   15.2201   17.0456   17.8454   18.8579   20.0327   20.5851
   26.7065   28.9846   36.6030   40.1465   44.8318   64.5092
 440  1  -12.2630  -11.4458   -7.7280   -6.8341   -3.0389   -1.8069    4.2611    4.8067    5.8066    6.4663
           9.2362    9.9501   10.8506   11.4943   15.2814   17.0730   17.8041   18.8928   20.0096   20.5523
   26.7352   28.9740   36.6308   40.1081   44.8577   63.8006
 441  1  -12.2634  -11.4485   -7.7022   -6.8411   -3.0476   -1.8653    4.3045    4.8429    5.8566    6.5081
           9.2012    9.9079   10.7913   11.4351   15.3419   17.1011   17.7647   18.9239   19.9876   20.5203
   26.7624   28.9639   36.6618   40.0710   44.8852   63.0967
 442  1  -12.2640  -11.4510   -7.6761   -6.8479   -3.0561   -1.9230    4.3477    4.8787    5.9067    6.5497
           9.1665    9.8661   10.7321   11.3762   15.4016   17.1296   17.7275   18.9509   19.9672   20.4892
   26.7881   28.9543   36.6959   40.0350   44.9140   62.3985
 443  1  -12.2648  -11.4534   -7.6499   -6.8545   -3.0645   -1.9799    4.3907    4.9142    5.9570    6.5911
           9.1321    9.8246   10.6730   11.3177   15.4604   17.1581   17.6927   18.9736   19.9485   20.4589
   26.8123   28.9453   36.7331   40.0002   44.9442   61.7068
 444  1  -12.2657  -11.4556   -7.6235   -6.8610   -3.0727   -2.0360    4.4336    4.9493    6.0073    6.6324
           9.0979    9.7835   10.6140   11.2595   15.5183   17.1862   17.6609   18.9918   19.9320   20.4294
   26.8349   28.9369   36.7735   39.9666   44.9755   61.0225
 445  1  -12.2668  -11.4576   -7.5970   -6.8673   -3.0807   -2.0913    4.4763    4.9839    6.0577    6.6734
           9.0640    9.7427   10.5552   11.2017   15.5751   17.2129   17.6330   19.0051   19.9179   20.4007
   26.8561   28.9291   36.8171   39.9341   45.0077   60.3462
 446  1  -12.2679  -11.4596   -7.5704   -6.8734   -3.0886   -2.1457    4.5187    5.0181    6.1082    6.7142
           9.0304    9.7024   10.4965   11.1442   15.6309   17.2371   17.6101   19.0136   19.9065   20.3728
   26.8758   28.9220   36.8638   39.9028   45.0406   59.6789
 447  1  -12.2692  -11.4614   -7.5438   -6.8794   -3.0963   -2.1992    4.5609    5.0519    6.1588    6.7548
           8.9972    9.6625   10.4380   11.0872   15.6856   17.2569   17.5940   19.0172   19.8977   20.3458
   26.8940   28.9154   36.9138   39.8725   45.0741   59.0211
 448  1  -12.2706  -11.4632   -7.5172   -6.8852   -3.1039   -2.2518    4.6029    5.0851    6.2094    6.7950
           8.9643    9.6232   10.3798   11.0305   15.7391   17.2704   17.5865   19.0160   19.8917   20.3196
   26.9108   28.9095   36.9671   39.8433   45.1080   58.3736
 449  1  -12.2720  -11.4648   -7.4906   -6.8909   -3.1113   -2.3035    4.6445    5.1178    6.2601    6.8348
           8.9319    9.5843   10.3219   10.9743   15.7915   17.2760   17.5891   19.0102   19.8883   20.2942
   26.9262   28.9041   37.0236   39.8152   45.1420   57.7369
 450  1  -12.2735  -11.4663   -7.4641   -6.8963   -3.1187   -2.3542    4.6859    5.1499    6.3107    6.8743
           8.9000    9.5459   10.2644   10.9186   15.8428   17.2734   17.6021   19.0001   19.8872   20.2696
   26.9402   28.8994   37.0834   39.7881   45.1759   57.1117
 451  1  -12.2751  -11.4677   -7.4377   -6.9016   -3.1258   -2.4038    4.7269    5.1814    6.3614    6.9133
           8.8685    9.5081   10.2073   10.8633   15.8928   17.2639   17.6241   18.9862   19.8882   20.2458
   26.9530   28.8952   37.1466   39.7620   45.2096   56.4985
 452  1  -12.2767  -11.4691   -7.4114   -6.9067   -3.1329   -2.4524    4.7676    5.2123    6.4121    6.9519
           8.8376    9.4709   10.1506   10.8085   15.9416   17.2492   17.6531   18.9689   19.8910   20.2228
   26.9645   28.8916   37.2131   39.7370   45.2427   55.8979
 453  1  -12.2784  -11.4703   -7.3853   -6.9117   -3.1399   -2.4998    4.8079    5.2425    6.4627    6.9899
           8.8072    9.4342   10.0944   10.7542   15.9893   17.2312   17.6872   18.9487   19.8950   20.2007
   26.9748   28.8885   37.2831   39.7129   45.2749   55.3104
 454  1  -12.2801  -11.4715   -7.3594   -6.9165   -3.1468   -2.5460    4.8477    5.2719    6.5132    7.0273
           8.7775    9.3982   10.0389   10.7005   16.0358   17.2112   17.7248   18.9261   19.9000   20.1793
   26.9839   28.8858   37.3564   39.6898   45.3060   54.7365
 455  1  -12.2818  -11.4726   -7.3339   -6.9211   -3.1536   -2.5910    4.8871    5.3006    6.5637    7.0641
           8.7484    9.3627    9.9841   10.6473   16.0810   17.1902   17.7648   18.9017   19.9057   20.1588
   26.9920   28.8837   37.4332   39.6676   45.3357   54.1767
 456  1  -12.2835  -11.4737   -7.3086   -6.9255   -3.1604   -2.6346    4.9260    5.3284    6.6140    7.1003
           8.7200    9.3279    9.9302   10.5947   16.1252   17.1688   17.8064   18.8760   19.9116   20.1391
   26.9991   28.8820   37.5135   39.6465   45.3635   53.6316
 457  1  -12.2852  -11.4746   -7.2837   -6.9298   -3.1671   -2.6769    4.9644    5.3554    6.6642    7.1356
           8.6924    9.2936    9.8771   10.5427   16.1681   17.1474   17.8488   18.8494   19.9175   20.1202
   27.0053   28.8807   37.5973   39.6262   45.3891   53.1018
 458  1  -12.2868  -11.4756   -7.2592   -6.9339   -3.1739   -2.7177    5.0022    5.3815    6.7141    7.1701
           8.6657    9.2599    9.8252   10.4913   16.2099   17.1262   17.8913   18.8224   19.9232   20.1022
   27.0106   28.8798   37.6845   39.6070   45.4120   52.5878
 459  1  -12.2885  -11.4764   -7.2352   -6.9378   -3.1807   -2.7570    5.0394    5.4066    6.7638    7.2038
           8.6398    9.2267    9.7745   10.4406   16.2506   17.1055   17.9336   18.7957   19.9284   20.0850
   27.0151   28.8792   37.7751   39.5886   45.4317   52.0903
 460  1  -12.2901  -11.4772   -7.2117   -6.9416   -3.1876   -2.7947    5.0760    5.4306    6.8132    7.2365
           8.6149    9.1940    9.7252   10.3907   16.2901   17.0855   17.9749   18.7697   19.9330   20.0688
   27.0188   28.8790   37.8692   39.5713   45.4474   51.6102
 461  1  -12.2917  -11.4780   -7.1888   -6.9451   -3.1947   -2.8306    5.1119    5.4536    6.8622    7.2681
           8.5910    9.1616    9.6776   10.3415   16.3284   17.0661   18.0145   18.7451   19.9369   20.0534
   27.0219   28.8790   37.9666   39.5548   45.4586   51.1482
 462  1  -12.2933  -11.4787   -7.1666   -6.9485   -3.2019   -2.8647    5.1470    5.4755    6.9108    7.2986
           8.5683    9.1294    9.6319   10.2932   16.3657   17.0476   18.0519   18.7225   19.9398   20.0389
   27.0244   28.8792   38.0672   39.5394   45.4642   50.7054
 463  1  -12.2948  -11.4794   -7.1450   -6.9518   -3.2094   -2.8969    5.1814    5.4961    6.9589    7.3279
           8.5467    9.0973    9.5883   10.2457   16.4017   17.0298   18.0861   18.7028   19.9417   20.0254
   27.0264   28.8796   38.1710   39.5249   45.4633   50.2830
 464  1  -12.2963  -11.4800   -7.1241   -6.9548   -3.2173   -2.9270    5.2149    5.5155    7.0063    7.3560
           8.5264    9.0651    9.5472   10.1991   16.4366   17.0130   18.1163   18.6868   19.9425   20.0129
   27.0278   28.8802   38.2776   39.5115   45.4547   49.8824
 465  1  -12.2977  -11.4806   -7.1041   -6.9577   -3.2254   -2.9550    5.2475    5.5335    7.0530    7.3827
           8.5075    9.0328    9.5088   10.1536   16.4702   16.9971   18.1415   18.6755   19.9421   20.0015
   27.0289   28.8810   38.3869   39.4991   45.4369   49.5052
 466  1  -12.2990  -11.4811   -7.0849   -6.9604   -3.2340   -2.9807    5.2792    5.5502    7.0989    7.4079
           8.4901    9.0000    9.4735   10.1092   16.5026   16.9821   18.1608   18.6695   19.9405   19.9912
   27.0296   28.8818   38.4985   39.4880   45.4083   49.1534
 467  1  -12.3003  -11.4816   -7.0666   -6.9629   -3.2431   -3.0040    5.3099    5.5655    7.1438    7.4317
           8.4743    8.9667    9.4415   10.0660   16.5337   16.9682   18.1739   18.6695   19.9378   19.9820
   27.0300   28.8827   38.6118   39.4781   45.3674   48.8289
 468  1  -12.3015  -11.4820   -7.0493   -6.9652   -3.2526   -3.0250    5.3396    5.5793    7.1875    7.4540
           8.4602    8.9328    9.4129   10.0241   16.5633   16.9552   18.1806   18.6752   19.9341   19.9737
   27.0301   28.8837   38.7262   39.4698   45.3125   48.5339
 469  1  -12.3026  -11.4825   -7.0331   -6.9673   -3.2624   -3.0436    5.3681    5.5915    7.2299    7.4747
           8.4479    8.8982    9.3880    9.9836   16.5914   16.9432   18.1816   18.6862   19.9296   19.9662
   27.0301   28.8847   38.8408   39.4635   45.2422   48.2702
 470  1  -12.3037  -11.4828   -7.0179   -6.9693   -3.2725   -3.0598    5.3954    5.6022    7.2707    7.4937
           8.4377    8.8631    9.3667    9.9448   16.6179   16.9323   18.1777   18.7013   19.9247   19.9593
   27.0298   28.8857   38.9538   39.4600   45.1562   48.0390
 471  1  -12.3047  -11.4832   -7.0040   -6.9709   -3.2828   -3.0739    5.4215    5.6112    7.3097    7.5110
           8.4296    8.8274    9.3490    9.9077   16.6427   16.9225   18.1702   18.7194   19.9197   19.9528
   27.0295   28.8867   39.0629   39.4608   45.0551   47.8407
 472  1  -12.3055  -11.4835   -6.9914   -6.9722   -3.2929   -3.0859    5.4463    5.6185    7.3466    7.5266
           8.4239    8.7914    9.3347    9.8725   16.6656   16.9137   18.1603   18.7391   19.9149   19.9464
   27.0291   28.8876   39.1634   39.4696   44.9409   47.6742
 473  1  -12.3063  -11.4838   -6.9813   -6.9722   -3.3027   -3.0960    5.4698    5.6241    7.3812    7.5405
           8.4207    8.7554    9.3237    9.8396   16.6864   16.9061   18.1490   18.7595   19.9105   19.9402
   27.0286   28.8885   39.2466   39.4934   44.8172   47.5374
 474  1  -12.3071  -11.4840   -6.9776   -6.9667   -3.3119   -3.1045    5.4918    5.6279    7.4129    7.5527
           8.4202    8.7196    9.3156    9.8092   16.7051   16.8995   18.1371   18.7795   19.9066   19.9340
   27.0281   28.8894   39.3023   39.5409   44.6887   47.4273
 475  1  -12.3077  -11.4842   -6.9779   -6.9584   -3.3204   -3.1115    5.5123    5.6300    7.4416    7.5631
           8.4225    8.6844    9.3100    9.7816   16.7214   16.8941   18.1256   18.7983   19.9034   19.9281
   27.0276   28.8901   39.3312   39.6093   44.5611   47.3403
 476  1  -12.3082  -11.4844   -6.9786   -6.9509   -3.3279   -3.1171    5.5313    5.6303    7.4668    7.5717
           8.4279    8.6501    9.3064    9.7572   16.7353   16.8898   18.1148   18.8152   19.9010   19.9224
   27.0272   28.8908   39.3444   39.6852   44.4400   47.2730
 477  1  -12.3086  -11.4845   -6.9793   -6.9446   -3.3343   -3.1215    5.5486    5.6289    7.4882    7.5786
           8.4364    8.6172    9.3045    9.7363   16.7466   16.8866   18.1054   18.8298   19.8994   19.9171
   27.0268   28.8913   39.3504   39.7575   44.3313   47.2222
 478  1  -12.3090  -11.4846   -6.9798   -6.9396   -3.3394   -3.1248    5.5641    5.6257    7.5054    7.5838
           8.4481    8.5860    9.3037    9.7195   16.7554   16.8843   18.0977   18.8416   19.8986   19.9123
   27.0265   28.8917   39.3531   39.8196   44.2403   47.1853
 479  1  -12.3092  -11.4847   -6.9802   -6.9360   -3.3431   -3.1271    5.5777    5.6210    7.5180    7.5874
           8.4629    8.5570    9.3035    9.7071   16.7615   16.8828   18.0921   18.8503   19.8988   19.9082
   27.0262   28.8921   39.3543   39.8670   44.1716   47.1603
 480  1  -12.3094  -11.4848   -6.9805   -6.9339   -3.3453   -3.1285    5.5886    5.6154    7.5258    7.5894
           8.4800    8.5311    9.3036    9.6995   16.7652   16.8820   18.0886   18.8556   19.8997   19.9047
   27.0261   28.8922   39.3547   39.8967   44.1288   47.1459
 481  1  -12.3094  -11.4848   -6.9805   -6.9332   -3.3461   -3.1289    5.5938    5.6120    7.5284    7.5901
           8.4929    8.5153    9.3037    9.6970   16.7664   16.8817   18.0874   18.8573   19.9009   19.9027
   27.0260   28.8923   39.3548   39.9068   44.1142   47.1412

siesta: Program's energy decomposition (eV):
siesta: Ebs     =       -73.148103
siesta: Eions   =       377.610449
siesta: Ena     =       114.102497
siesta: Ekin    =        81.073867
siesta: Enl     =        29.180038
siesta: Eso     =         0.000000
siesta: Edftu   =         0.000000
siesta: DEna    =         3.872779
siesta: DUscf   =         0.273100
siesta: DUext   =         0.000000
siesta: Exc     =       -65.054094
siesta: eta*DQ  =         0.000000
siesta: Emadel  =         0.000000
siesta: Emeta   =         0.000000
siesta: Emolmec =         0.000000
siesta: Ekinion =         0.000000
siesta: Eharris =      -214.162262
siesta: Etot    =      -214.162262
siesta: FreeEng =      -214.162263

siesta: Final energy (eV):
siesta:  Band Struct. =     -73.148103
siesta:       Kinetic =      81.073867
siesta:       Hartree =      15.165049
siesta:       Edftu   =       0.000000
siesta:       Eso     =       0.000000
siesta:    Ext. field =       0.000000
siesta:   Exch.-corr. =     -65.054094
siesta:  Ion-electron =     -99.936520
siesta:       Ion-ion =    -145.410565
siesta:       Ekinion =       0.000000
siesta:         Total =    -214.162262
siesta:         Fermi =      -3.748932

siesta: Stress tensor (static) (eV/Ang**3):
siesta:    -0.002435   -0.000001   -0.000001
siesta:    -0.000001   -0.002435   -0.000001
siesta:    -0.000001   -0.000001   -0.002435

siesta: Cell volume =         41.141648 Ang**3

siesta: Pressure (static):
siesta:                Solid            Molecule  Units
siesta:           0.00002652          0.00002652  Ry/Bohr**3
siesta:           0.00243501          0.00243494  eV/Ang**3
siesta:           3.90135139          3.90124479  kBar
(Free)E+ p_basis*V_orbitals  =        -212.875143
(Free)Eharris+ p_basis*V_orbitals  =        -212.875143

cite: Please see "siesta.bib" for an exhaustive BiBTeX file.
cite: Please clearly indicate Siesta version in published work: 4.1.5
cite: This calculation has made use of the following articles
cite: which are encouraged to be cited in a published work.
        Primary SIESTA paper
          DOI: www.doi.org/10.1088/0953-8984/14/11/302


timer: Elapsed wall time (sec) =      31.357
timer: CPU execution times (sec):

Routine            Calls   Time/call    Tot.time        %
siesta                 1      31.261      31.261   100.00
Setup                  1       0.159       0.159     0.51
bands                  3       0.153       0.459     1.47
KSV_init               1       0.000       0.000     0.00
IterGeom               1      30.602      30.602    97.89
state_init             1       0.131       0.131     0.42
hsparse                1       0.007       0.007     0.02
overlap                1       0.110       0.110     0.35
Setup_H0               1       1.302       1.302     4.17
naefs                  2       0.000       0.000     0.00
MolMec                 2       0.000       0.000     0.00
kinefsm                2       0.057       0.114     0.36
nlefsm                 2       0.387       0.775     2.48
DHSCF_Init             1       0.636       0.636     2.03
DHSCF1                 1       0.037       0.037     0.12
INITMESH               1       0.000       0.000     0.00
DHSCF2                 1       0.599       0.599     1.92
REMESH                 1       0.115       0.115     0.37
REORD                 24       0.000       0.002     0.01
PHION                  1       0.443       0.443     1.42
COMM_BSC              35       0.000       0.002     0.01
POISON                 9       0.002       0.017     0.05
fft                   18       0.001       0.011     0.04
IterSCF                6       4.646      27.875    89.17
setup_H                7       0.314       2.198     7.03
DHSCF                  8       0.407       3.259    10.43
DHSCF3                 8       0.314       2.509     8.03
rhoofd                 8       0.150       1.203     3.85
XC                     8       0.058       0.461     1.47
GXC-CellXC             8       0.058       0.460     1.47
cellXC                 8       0.058       0.460     1.47
vmat                   8       0.103       0.824     2.64
compute_dm             6       4.279      25.672    82.12
diagon                 6       4.279      25.671    82.12
c-eigval           10609       0.001       9.614    30.76
c-buildHS          10609       0.001       8.794    28.13
cdiag              20737       0.000       2.479     7.93
cdiag1             20737       0.000       0.171     0.55
cdiag2             20737       0.000       0.359     1.15
cdiag3             20737       0.000       1.816     5.81
c-eigvec           10128       0.001      10.073    32.22
cdiag4             10128       0.000       0.043     0.14
c-buildD           10128       0.001       6.383    20.42
MIXER                  5       0.000       0.002     0.01
PostSCF                1       1.293       1.293     4.14
DHSCF4                 1       0.750       0.750     2.40
dfscf                  1       0.708       0.708     2.27
overfsm                1       0.007       0.007     0.02
state_analysis         1       0.000       0.000     0.00
siesta_move            1       0.000       0.000     0.00
Analysis               1       0.498       0.498     1.59
siesta_analysis        1       0.498       0.498     1.59
optical                1       0.000       0.000     0.00
  
>> End of run:  29-AUG-2024  11:41:02
Job completed
