37
Lattice="20.0 0.0 0.0 0.0 20.0 0.0 0.0 0.0 20.0" Properties=species:S:1:pos:R:3:initial_magmoms:R:1:forces:R:3 energy=-5174.719697 stress="2.8554703740269893e-05 -3.672630706144038e-07 0.0 -3.672630706144038e-07 2.791199336669469e-05 -0.0 0.0 -0.0 3.672630706144038e-07" dipole="-1.49899930742448e-05 6.245830447602e-06 -0.0004740585309729918" free_energy=-5174.732991 pbc="F F F"
N       11.41124535      11.41108939      10.00105347       0.00000000      -0.00700651      -0.00250225       0.00080000
N       11.41111512       8.58878617      10.00053824       0.00000000      -0.00208815       0.00652572       0.00064622
N        8.58879182       8.58888238      10.00144862       0.00000000       0.00668677       0.00273398       0.00103654
N        8.58888970      11.41119491      10.00125980       0.00000000       0.00249472      -0.00638690       0.00130689
C       11.23623711      12.79488761      10.00058841       0.00000000       0.00294576       0.00701171      -0.00031079
C       12.51004014      13.48650941      10.00105831       0.00000000      -0.00805640      -0.00168376      -0.00018959
C       13.48596382      12.51082095      10.00163824       0.00000000       0.00322368      -0.00530372       0.00019324
C       12.79511014      11.23652725      10.00156260       0.00000000       0.00114221       0.00809442       0.00025608
C       12.79491670       8.76377458      10.00116467       0.00000000       0.00725041      -0.00356180       0.00120130
C       13.48654310       7.48996342      10.00118815       0.00000000      -0.00283858       0.00828656      -0.00062036
C       12.51083001       6.51404835      10.00022665       0.00000000      -0.00527670      -0.00306064       0.00007688
C       11.23654250       7.20492320       9.99982122       0.00000000       0.00812798      -0.00114039       0.00007981
C       10.00014085       6.54706527       9.99892157       0.00000000       0.00302974       0.01781561       0.00012112
C        8.76377218       7.20508281       9.99973408       0.00000000      -0.00303706      -0.00658583      -0.00087520
C        7.48995685       6.51348261       9.99937790       0.00000000       0.00836665       0.00208887       0.00064033
C        6.51404101       7.48918733      10.00162657       0.00000000      -0.00268343       0.00440715       0.00005479
C        7.20493332       8.76345580      10.00266868       0.00000000      -0.00140616      -0.00866308      -0.00104001
C        6.54703107       9.99982929      10.00327068       0.00000000       0.01923106      -0.00209820       0.00005410
C        7.20509614      11.23620840      10.00204340       0.00000000      -0.00791506       0.00232916      -0.00196085
C        6.51346460      12.51000373      10.00011758       0.00000000       0.00234307      -0.00806712       0.00079103
C        7.48916701      13.48592839       9.99820737       0.00000000       0.00543192       0.00385740       0.00038600
C        8.76346018      12.79506560       9.99943302       0.00000000      -0.00813489       0.00119919      -0.00101790
C        9.99986908      13.45292351       9.99931193       0.00000000      -0.00318578      -0.01792486      -0.00003204
H        5.41643464      12.62911376       9.99999829       0.00000000       0.00307568      -0.01007788       0.00006669
H        5.41723911       7.36879736      10.00219514       0.00000000      -0.00107657       0.01333513      -0.00016920
C       13.45297349      10.00012487      10.00175284       0.00000000      -0.01813700       0.00380467      -0.00058253
H       14.55855526      10.00051209      10.00212755       0.00000000      -0.00713368      -0.00277013      -0.00106863
H       10.00052742       5.44148804       9.99777413       0.00000000      -0.00268693       0.00690002       0.00147862
H        5.44145956       9.99947370      10.00405580       0.00000000       0.00733119       0.00249641      -0.00188485
H        9.99947514      14.55851469       9.99823931       0.00000000       0.00280479      -0.00729813       0.00120209
H       12.63117993       5.41723545      10.00006720       0.00000000      -0.01317127      -0.00087438      -0.00039508
H       14.58356771       7.37087896      10.00177782       0.00000000      -0.00286357       0.00996537      -0.00003587
H        7.37089199       5.41645674       9.99746721       0.00000000       0.00978662       0.00271146       0.00099638
H        7.36882183      14.58276246       9.99593095       0.00000000       0.01317230       0.00007520       0.00105114
H       12.62911910      14.58354494      10.00099162       0.00000000      -0.00994842      -0.00310913      -0.00035679
H       14.58276812      12.63117376      10.00193482       0.00000000       0.00113872      -0.01308080       0.00027081
Fe      10.00000255      10.00000840      10.00110649       2.00000000       0.00020021      -0.00044711      -0.00328237
