
  ___ ___ ___ _ _ _  
 |   |   |_  | | | | 
 | | | | | . | | | | 
 |__ |  _|___|_____|  22.8.0
 |___|_|             

User:   yachzh@fedora
Date:   Wed Aug 28 17:30:48 2024
Arch:   x86_64
Pid:    73736
CWD:    /home/yachzh/work/ruby_siesta/test/pybands
Python: 3.10.9
gpaw:   /home/yachzh/.local/packages/anaconda3/lib/python3.10/site-packages/gpaw
_gpaw:  /home/yachzh/.local/packages/anaconda3/lib/python3.10/site-packages/
        _gpaw.cpython-310-x86_64-linux-gnu.so
ase:    /home/yachzh/.local/packages/anaconda3/lib/python3.10/site-packages/ase (version 3.22.1)
numpy:  /home/yachzh/.local/packages/anaconda3/lib/python3.10/site-packages/numpy (version 1.23.5)
scipy:  /home/yachzh/.local/packages/anaconda3/lib/python3.10/site-packages/scipy (version 1.10.0)
libxc:  6.2.2
units:  Angstrom and eV
cores: 1
OpenMP: False
OMP_NUM_THREADS: 1

Input parameters:
  kpts: [8 8 8]
  mode: {ecut: 400.0,
         name: pw}
  occupations: {fixmagmom: False,
                name: fermi-dirac,
                width: 0.01}
  random: True
  xc: PBE

System changes: positions, numbers, cell, pbc, initial_charges, initial_magmoms 

Initialize ...

species:
  Si:
    name: Silicon
    id: ee77bee481871cc2cb65ac61239ccafa
    Z: 14.0
    valence: 4
    core: 10
    charge: 0.0
    file: /home/yachzh/pot/gpaw-setups/gpaw-setups-0.9.20000/Si.PBE.gz
    compensation charges: {type: gauss,
                           rc: 0.33,
                           lmax: 2}
    cutoffs: {filter: 1.86,
              core: 2.06}
    valence states:
      #              energy  rcut
      - 3s(2.00)   -10.812   1.058
      - 3p(2.00)    -4.081   1.058
      -  s          16.399   1.058
      -  p          23.130   1.058
      -  d           0.000   1.058
  
    # Using partial waves for Si as LCAO basis

Reference energy: -15772.688500  # eV

Spin-paired calculation

Convergence criteria:
 Maximum [total energy] change in last 3 cyles: 0.0005 eV / electron
 Maximum integral of absolute [dens]ity change: 0.0001 electrons / valence electron
 Maximum integral of absolute [eigenst]ate change: 4e-08 eV^2 / valence electron
 Maximum number of scf [iter]ations: 333
 (Square brackets indicate name in SCF output, whereas a 'c' in
 the SCF output indicates the quantity has converged.)

Symmetries present (total): 24

  ( 1  0  0)  ( 1  0  0)  ( 1  0 -1)  ( 1  0 -1)  ( 1 -1  0)  ( 1 -1  0)
  ( 0  1  0)  ( 0  0  1)  ( 0  1 -1)  ( 0  0 -1)  ( 0 -1  1)  ( 0 -1  0)
  ( 0  0  1)  ( 0  1  0)  ( 0  0 -1)  ( 0  1 -1)  ( 0 -1  0)  ( 0 -1  1)

  ( 0  1  0)  ( 0  1  0)  ( 0  1 -1)  ( 0  1 -1)  ( 0  0  1)  ( 0  0  1)
  ( 1  0  0)  ( 0  0  1)  ( 1  0 -1)  ( 0  0 -1)  ( 1  0  0)  ( 0  1  0)
  ( 0  0  1)  ( 1  0  0)  ( 0  0 -1)  ( 1  0 -1)  ( 0  1  0)  ( 1  0  0)

  ( 0  0 -1)  ( 0  0 -1)  ( 0 -1  1)  ( 0 -1  1)  ( 0 -1  0)  ( 0 -1  0)
  ( 1  0 -1)  ( 0  1 -1)  ( 1 -1  0)  ( 0 -1  0)  ( 1 -1  0)  ( 0 -1  1)
  ( 0  1 -1)  ( 1  0 -1)  ( 0 -1  0)  ( 1 -1  0)  ( 0 -1  1)  ( 1 -1  0)

  (-1  1  0)  (-1  1  0)  (-1  0  1)  (-1  0  1)  (-1  0  0)  (-1  0  0)
  (-1  0  1)  (-1  0  0)  (-1  1  0)  (-1  0  0)  (-1  1  0)  (-1  0  1)
  (-1  0  0)  (-1  0  1)  (-1  0  0)  (-1  1  0)  (-1  0  1)  (-1  1  0)
Note: your k-points are not as symmetric as your crystal!

512 k-points: 8 x 8 x 8 Monkhorst-Pack grid
60 k-points in the irreducible part of the Brillouin zone
       k-points in crystal coordinates                weights
   0:     0.06250000    0.06250000   -0.06250000          6/512
   1:     0.06250000    0.06250000    0.06250000          2/512
   2:     0.18750000   -0.06250000   -0.06250000          6/512
   3:     0.18750000    0.06250000   -0.18750000         12/512
   4:     0.18750000    0.06250000   -0.06250000         12/512
   5:     0.18750000    0.06250000    0.06250000          6/512
   6:     0.18750000    0.18750000   -0.18750000          6/512
   7:     0.18750000    0.18750000   -0.06250000          6/512
   8:     0.18750000    0.18750000    0.06250000          6/512
   9:     0.18750000    0.18750000    0.18750000          2/512
          ...
  59:     0.43750000    0.43750000    0.43750000          2/512

Wave functions: Plane wave expansion
  Cutoff energy: 400.000 eV
  Number of coefficients (min, max): 737, 758
  Pulay-stress correction: 0.000000 eV/Ang^3 (de/decut=0.000000)
  Using Numpy's FFT
  ScaLapack parameters: grid=1x1, blocksize=None
  Wavefunction extrapolation:
    Improved wavefunction reuse through dual PAW basis 

Occupation numbers: Fermi-Dirac:
  width: 0.0100  # eV
 

Eigensolver
   Davidson(niter=2) 

Densities:
  Coarse grid: 18*18*18 grid
  Fine grid: 36*36*36 grid
  Total Charge: 0.000000 

Density mixing:
  Method: separate
  Backend: pulay
  Linear mixing parameter: 0.05
  old densities: 5
  Damping of long wavelength oscillations: 50 

Hamiltonian:
  XC and Coulomb potentials evaluated on a 36*36*36 grid
  Using the PBE Exchange-Correlation functional
  External potential:
    NoExternalPotential
 

XC parameters: PBE with 2 nearest neighbor stencil

Memory estimate:
  Process memory now: 322.57 MiB
  Calculator: 14.77 MiB
    Density: 2.39 MiB
      Arrays: 1.16 MiB
      Localized functions: 0.79 MiB
      Mixer: 0.44 MiB
    Hamiltonian: 0.77 MiB
      Arrays: 0.76 MiB
      XC: 0.00 MiB
      Poisson: 0.00 MiB
      vbar: 0.02 MiB
    Wavefunctions: 11.61 MiB
      Arrays psit_nG: 5.55 MiB
      Eigensolver: 0.16 MiB
      Projections: 0.19 MiB
      Projectors: 4.79 MiB
      PW-descriptor: 0.92 MiB

Total number of cores used: 1

Number of atoms: 2
Number of atomic orbitals: 8
Number of bands in calculation: 8
Number of valence electrons: 8
Bands to converge: occupied

... initialized

Initializing position-dependent things.

Density initialized from atomic densities
Creating initial wave functions:
  8 bands from LCAO basis set

                    
                    
                    
                    
           Si       
                    
       Si           
                    
                    
                    
                    

Positions:
   0 Si     0.000000    0.000000    0.000000    ( 0.0000,  0.0000,  0.0000)
   1 Si     1.370000    1.370000    1.370000    ( 0.0000,  0.0000,  0.0000)

Unit cell:
           periodic     x           y           z      points  spacing
  1. axis:    yes    0.000000    2.740000    2.740000    18     0.1758
  2. axis:    yes    2.740000    0.000000    2.740000    18     0.1758
  3. axis:    yes    2.740000    2.740000    0.000000    18     0.1758

  Lengths:   3.874945   3.874945   3.874945
  Angles:   60.000000  60.000000  60.000000

Effective grid spacing dv^(1/3) = 0.1918

     iter     time        total  log10-change:
                         energy  eigst   dens
iter:   1 17:30:50   -10.873823
iter:   2 17:30:51   -10.876558  -1.94  -0.81
iter:   3 17:30:52   -11.092111  -1.21  -0.81
iter:   4 17:30:53   -10.836992  -2.31  -0.71
iter:   5 17:30:55   -10.821186  -3.28  -1.25
iter:   6 17:30:56   -10.798871  -2.75  -1.38
iter:   7 17:30:57   -10.798789  -4.42  -2.59
iter:   8 17:30:58   -10.798791c -5.41  -3.18
iter:   9 17:30:59   -10.798801c -6.11  -3.18
iter:  10 17:31:00   -10.798794c -6.60  -3.14
iter:  11 17:31:01   -10.798794c -8.48c -3.87
iter:  12 17:31:02   -10.798794c -7.91c -3.83
iter:  13 17:31:03   -10.798794c -8.74c -4.70c

Converged after 13 iterations.

Dipole moment: (-2.910244, -2.910244, -2.910244) |e|*Ang

Energy contributions relative to reference atoms: (reference = -15772.688500)

Kinetic:        +12.993028
Potential:      -11.629945
External:        +0.000000
XC:             -12.139506
Entropy (-ST):   -0.000000
Local:           -0.022372
--------------------------
Free energy:    -10.798794
Extrapolated:   -10.798794

Showing only first 2 kpts
 Kpt  Band  Eigenvalues  Occupancy
  0     2      4.55091    2.00000
  0     3      4.70627    2.00000
  0     4      7.44076    0.00000
  0     5      7.99466    0.00000

  1     2      4.97263    2.00000
  1     3      4.97263    2.00000
  1     4      7.63369    0.00000
  1     5      7.72327    0.00000


Fermi level: 5.63119

Gap: 0.861 eV
Transition (v -> c):
  (s=0, k=1, n=3, [0.06, 0.06, 0.06]) -> (s=0, k=55, n=4, [0.44, 0.44, -0.06])
Writing to Si_gs.gpw (mode='')

Timing:                              incl.     excl.
-----------------------------------------------------------
Hamiltonian:                         0.072     0.000   0.0% |
 Atomic:                             0.058     0.000   0.0% |
  XC Correction:                     0.057     0.057   0.0% |
 Calculate atomic Hamiltonians:      0.001     0.001   0.0% |
 Communicate:                        0.000     0.000   0.0% |
 Initialize Hamiltonian:             0.000     0.000   0.0% |
 Poisson:                            0.000     0.000   0.0% |
 XC 3D grid:                         0.013     0.013   0.0% |
LCAO initialization:                 0.486     0.012   0.0% |
 LCAO eigensolver:                   0.061     0.001   0.0% |
  Calculate projections:             0.001     0.001   0.0% |
  DenseAtomicCorrection:             0.004     0.004   0.0% |
  Distribute overlap matrix:         0.001     0.001   0.0% |
  Orbital Layouts:                   0.006     0.006   0.0% |
  Potential matrix:                  0.040     0.040   0.0% |
  Sum over cells:                    0.008     0.008   0.0% |
 LCAO to grid:                       0.247     0.247   0.1% |
 Set positions (LCAO WFS):           0.166     0.025   0.0% |
  Basic WFS set positions:           0.001     0.001   0.0% |
  Basis functions set positions:     0.000     0.000   0.0% |
  P tci:                             0.053     0.053   0.0% |
  ST tci:                            0.077     0.077   0.0% |
  mktci:                             0.010     0.010   0.0% |
PWDescriptor:                        0.009     0.009   0.0% |
SCF-cycle:                          14.108     0.092   0.0% |
 Davidson:                          11.931     1.231   0.4% |
  Apply H:                           2.369     2.314   0.7% |
   HMM T:                            0.055     0.055   0.0% |
  Subspace diag:                     2.663     0.037   0.0% |
   calc_h_matrix:                    2.481     0.107   0.0% |
    Apply H:                         2.374     2.314   0.7% |
     HMM T:                          0.060     0.060   0.0% |
   diagonalize:                      0.079     0.079   0.0% |
   rotate_psi:                       0.066     0.066   0.0% |
  calc. matrices:                    5.396     0.665   0.2% |
   Apply H:                          4.730     4.621   1.3% ||
    HMM T:                           0.109     0.109   0.0% |
  diagonalize:                       0.164     0.164   0.0% |
  rotate_psi:                        0.108     0.108   0.0% |
 Density:                            1.202     0.000   0.0% |
  Atomic density matrices:           0.027     0.027   0.0% |
  Mix:                               0.033     0.033   0.0% |
  Multipole moments:                 0.001     0.001   0.0% |
  Pseudo density:                    1.140     1.059   0.3% |
   Symmetrize density:               0.081     0.081   0.0% |
 Hamiltonian:                        0.858     0.005   0.0% |
  Atomic:                            0.691     0.005   0.0% |
   XC Correction:                    0.686     0.686   0.2% |
  Calculate atomic Hamiltonians:     0.009     0.009   0.0% |
  Communicate:                       0.000     0.000   0.0% |
  Poisson:                           0.002     0.002   0.0% |
  XC 3D grid:                        0.150     0.150   0.0% |
 Orthonormalize:                     0.026     0.003   0.0% |
  calc_s_matrix:                     0.006     0.006   0.0% |
  inverse-cholesky:                  0.003     0.003   0.0% |
  projections:                       0.012     0.012   0.0% |
  rotate_psi_s:                      0.002     0.002   0.0% |
Set symmetry:                        0.033     0.033   0.0% |
Other:                             335.625   335.625  95.8% |-------------------------------------|
-----------------------------------------------------------
Total:                                       350.333 100.0%

Memory usage: 398.01 MiB
Date: Wed Aug 28 17:36:39 2024
