
  ___ ___ ___ _ _ _  
 |   |   |_  | | | | 
 | | | | | . | | | | 
 |__ |  _|___|_____|  22.8.0
 |___|_|             

User:   yachzh@fedora
Date:   Thu Aug 29 11:38:10 2024
Arch:   x86_64
Pid:    81759
CWD:    /home/yachzh/work/ruby_siesta/test/pybands
Python: 3.10.9
gpaw:   /home/yachzh/.local/packages/anaconda3/lib/python3.10/site-packages/gpaw
_gpaw:  /home/yachzh/.local/packages/anaconda3/lib/python3.10/site-packages/
        _gpaw.cpython-310-x86_64-linux-gnu.so
ase:    /home/yachzh/.local/packages/anaconda3/lib/python3.10/site-packages/ase (version 3.22.1)
numpy:  /home/yachzh/.local/packages/anaconda3/lib/python3.10/site-packages/numpy (version 1.23.5)
scipy:  /home/yachzh/.local/packages/anaconda3/lib/python3.10/site-packages/scipy (version 1.10.0)
libxc:  6.2.2
units:  Angstrom and eV
cores: 1
OpenMP: False
OMP_NUM_THREADS: 1

Input parameters:
  kpts: [15 15 15]
  mode: {ecut: 400.0,
         name: pw}
  occupations: {fixmagmom: False,
                name: fermi-dirac,
                width: 0.01}
  random: True
  xc: PBE

System changes: positions, numbers, cell, pbc, initial_charges, initial_magmoms 

Initialize ...

species:
  Si:
    name: Silicon
    id: ee77bee481871cc2cb65ac61239ccafa
    Z: 14.0
    valence: 4
    core: 10
    charge: 0.0
    file: /home/yachzh/pot/gpaw-setups/gpaw-setups-0.9.20000/Si.PBE.gz
    compensation charges: {type: gauss,
                           rc: 0.33,
                           lmax: 2}
    cutoffs: {filter: 1.86,
              core: 2.06}
    valence states:
      #              energy  rcut
      - 3s(2.00)   -10.812   1.058
      - 3p(2.00)    -4.081   1.058
      -  s          16.399   1.058
      -  p          23.130   1.058
      -  d           0.000   1.058
  
    # Using partial waves for Si as LCAO basis

Reference energy: -15772.688500  # eV

Spin-paired calculation

Convergence criteria:
 Maximum [total energy] change in last 3 cyles: 0.0005 eV / electron
 Maximum integral of absolute [dens]ity change: 0.0001 electrons / valence electron
 Maximum integral of absolute [eigenst]ate change: 4e-08 eV^2 / valence electron
 Maximum number of scf [iter]ations: 333
 (Square brackets indicate name in SCF output, whereas a 'c' in
 the SCF output indicates the quantity has converged.)

Symmetries present (total): 24

  ( 1  0  0)  ( 1  0  0)  ( 1  0 -1)  ( 1  0 -1)  ( 1 -1  0)  ( 1 -1  0)
  ( 0  1  0)  ( 0  0  1)  ( 0  1 -1)  ( 0  0 -1)  ( 0 -1  1)  ( 0 -1  0)
  ( 0  0  1)  ( 0  1  0)  ( 0  0 -1)  ( 0  1 -1)  ( 0 -1  0)  ( 0 -1  1)

  ( 0  1  0)  ( 0  1  0)  ( 0  1 -1)  ( 0  1 -1)  ( 0  0  1)  ( 0  0  1)
  ( 1  0  0)  ( 0  0  1)  ( 1  0 -1)  ( 0  0 -1)  ( 1  0  0)  ( 0  1  0)
  ( 0  0  1)  ( 1  0  0)  ( 0  0 -1)  ( 1  0 -1)  ( 0  1  0)  ( 1  0  0)

  ( 0  0 -1)  ( 0  0 -1)  ( 0 -1  1)  ( 0 -1  1)  ( 0 -1  0)  ( 0 -1  0)
  ( 1  0 -1)  ( 0  1 -1)  ( 1 -1  0)  ( 0 -1  0)  ( 1 -1  0)  ( 0 -1  1)
  ( 0  1 -1)  ( 1  0 -1)  ( 0 -1  0)  ( 1 -1  0)  ( 0 -1  1)  ( 1 -1  0)

  (-1  1  0)  (-1  1  0)  (-1  0  1)  (-1  0  1)  (-1  0  0)  (-1  0  0)
  (-1  0  1)  (-1  0  0)  (-1  1  0)  (-1  0  0)  (-1  1  0)  (-1  0  1)
  (-1  0  0)  (-1  0  1)  (-1  0  0)  (-1  1  0)  (-1  0  1)  (-1  1  0)

3375 k-points: 15 x 15 x 15 Monkhorst-Pack grid
120 k-points in the irreducible part of the Brillouin zone
       k-points in crystal coordinates                weights
   0:     0.00000000    0.00000000    0.00000000          1/3375
   1:     0.06666667    0.06666667    0.00000000          6/3375
   2:     0.06666667    0.06666667    0.06666667          8/3375
   3:     0.13333333    0.06666667    0.06666667         12/3375
   4:     0.13333333    0.13333333    0.00000000          6/3375
   5:     0.13333333    0.13333333    0.06666667         24/3375
   6:     0.13333333    0.13333333    0.13333333          8/3375
   7:     0.20000000    0.13333333    0.06666667         24/3375
   8:     0.20000000    0.13333333    0.13333333         24/3375
   9:     0.20000000    0.20000000    0.00000000          6/3375
          ...
 119:     0.46666667    0.46666667    0.46666667          8/3375

Wave functions: Plane wave expansion
  Cutoff energy: 400.000 eV
  Number of coefficients (min, max): 725, 763
  Pulay-stress correction: 0.000000 eV/Ang^3 (de/decut=0.000000)
  Using Numpy's FFT
  ScaLapack parameters: grid=1x1, blocksize=None
  Wavefunction extrapolation:
    Improved wavefunction reuse through dual PAW basis 

Occupation numbers: Fermi-Dirac:
  width: 0.0100  # eV
 

Eigensolver
   Davidson(niter=2) 

Densities:
  Coarse grid: 18*18*18 grid
  Fine grid: 36*36*36 grid
  Total Charge: 0.000000 

Density mixing:
  Method: separate
  Backend: pulay
  Linear mixing parameter: 0.05
  old densities: 5
  Damping of long wavelength oscillations: 50 

Hamiltonian:
  XC and Coulomb potentials evaluated on a 36*36*36 grid
  Using the PBE Exchange-Correlation functional
  External potential:
    NoExternalPotential
 

XC parameters: PBE with 2 nearest neighbor stencil

Memory estimate:
  Process memory now: 322.23 MiB
  Calculator: 26.08 MiB
    Density: 2.39 MiB
      Arrays: 1.16 MiB
      Localized functions: 0.79 MiB
      Mixer: 0.44 MiB
    Hamiltonian: 0.77 MiB
      Arrays: 0.76 MiB
      XC: 0.00 MiB
      Poisson: 0.00 MiB
      vbar: 0.02 MiB
    Wavefunctions: 22.92 MiB
      Arrays psit_nG: 11.18 MiB
      Eigensolver: 0.16 MiB
      Projections: 0.38 MiB
      Projectors: 9.58 MiB
      PW-descriptor: 1.62 MiB

Total number of cores used: 1

Number of atoms: 2
Number of atomic orbitals: 8
Number of bands in calculation: 8
Number of valence electrons: 8
Bands to converge: occupied

... initialized

Initializing position-dependent things.

Density initialized from atomic densities
Creating initial wave functions:
  8 bands from LCAO basis set

                    
                    
                    
                    
           Si       
                    
       Si           
                    
                    
                    
                    

Positions:
   0 Si     0.000000    0.000000    0.000000    ( 0.0000,  0.0000,  0.0000)
   1 Si     1.370000    1.370000    1.370000    ( 0.0000,  0.0000,  0.0000)

Unit cell:
           periodic     x           y           z      points  spacing
  1. axis:    yes    0.000000    2.740000    2.740000    18     0.1758
  2. axis:    yes    2.740000    0.000000    2.740000    18     0.1758
  3. axis:    yes    2.740000    2.740000    0.000000    18     0.1758

  Lengths:   3.874945   3.874945   3.874945
  Angles:   60.000000  60.000000  60.000000

Effective grid spacing dv^(1/3) = 0.1918

     iter     time        total  log10-change:
                         energy  eigst   dens
iter:   1 11:38:13   -10.873812
iter:   2 11:38:15   -10.876548  -1.94  -0.81
iter:   3 11:38:18   -11.092047  -1.21  -0.81
iter:   4 11:38:20   -10.836966  -2.31  -0.71
iter:   5 11:38:22   -10.821163  -3.28  -1.25
iter:   6 11:38:24   -10.798858  -2.76  -1.38
iter:   7 11:38:26   -10.798776  -4.42  -2.59
iter:   8 11:38:28   -10.798779c -5.41  -3.18
iter:   9 11:38:30   -10.798788c -6.12  -3.17
iter:  10 11:38:32   -10.798782c -6.61  -3.14
iter:  11 11:38:35   -10.798782c -8.50c -3.87
iter:  12 11:38:37   -10.798781c -7.91c -3.83
iter:  13 11:38:39   -10.798781c -8.77c -4.71c

Converged after 13 iterations.

Dipole moment: (-2.910239, -2.910239, -2.910239) |e|*Ang

Energy contributions relative to reference atoms: (reference = -15772.688500)

Kinetic:        +12.992745
Potential:      -11.629642
External:        +0.000000
XC:             -12.139510
Entropy (-ST):   -0.000000
Local:           -0.022374
--------------------------
Free energy:    -10.798781
Extrapolated:   -10.798781

Showing only first 2 kpts
 Kpt  Band  Eigenvalues  Occupancy
  0     2      5.05490    2.00000
  0     3      5.05490    2.00000
  0     4      7.60255    0.00000
  0     5      7.60255    0.00000

  1     2      4.76992    2.00000
  1     3      4.76992    2.00000
  1     4      7.42576    0.00000
  1     5      7.98129    0.00000


Fermi level: 5.49835

Gap: 0.625 eV
Transition (v -> c):
  (s=0, k=0, n=3, [0.00, 0.00, 0.00]) -> (s=0, k=56, n=4, [0.40, 0.40, 0.00])
Writing to Si_gs.gpw (mode='')

Timing:                              incl.     excl.
-----------------------------------------------------------
Hamiltonian:                         0.071     0.000   0.0% |
 Atomic:                             0.056     0.000   0.0% |
  XC Correction:                     0.056     0.056   0.0% |
 Calculate atomic Hamiltonians:      0.001     0.001   0.0% |
 Communicate:                        0.000     0.000   0.0% |
 Initialize Hamiltonian:             0.000     0.000   0.0% |
 Poisson:                            0.000     0.000   0.0% |
 XC 3D grid:                         0.013     0.013   0.0% |
LCAO initialization:                 0.914     0.012   0.0% |
 LCAO eigensolver:                   0.082     0.003   0.0% |
  Calculate projections:             0.002     0.002   0.0% |
  DenseAtomicCorrection:             0.008     0.008   0.0% |
  Distribute overlap matrix:         0.001     0.001   0.0% |
  Orbital Layouts:                   0.011     0.011   0.0% |
  Potential matrix:                  0.040     0.040   0.0% |
  Sum over cells:                    0.018     0.018   0.0% |
 LCAO to grid:                       0.496     0.496   0.1% |
 Set positions (LCAO WFS):           0.323     0.043   0.0% |
  Basic WFS set positions:           0.001     0.001   0.0% |
  Basis functions set positions:     0.000     0.000   0.0% |
  P tci:                             0.135     0.135   0.0% |
  ST tci:                            0.135     0.135   0.0% |
  mktci:                             0.009     0.009   0.0% |
PWDescriptor:                        0.017     0.017   0.0% |
SCF-cycle:                          27.265     0.265   0.0% |
 Davidson:                          23.791     2.472   0.3% |
  Apply H:                           4.762     4.655   0.5% |
   HMM T:                            0.107     0.107   0.0% |
  Subspace diag:                     5.312     0.077   0.0% |
   calc_h_matrix:                    4.928     0.221   0.0% |
    Apply H:                         4.707     4.592   0.5% |
     HMM T:                          0.116     0.116   0.0% |
   diagonalize:                      0.169     0.169   0.0% |
   rotate_psi:                       0.138     0.138   0.0% |
  calc. matrices:                   10.680     1.351   0.2% |
   Apply H:                          9.330     9.120   1.0% |
    HMM T:                           0.210     0.210   0.0% |
  diagonalize:                       0.348     0.348   0.0% |
  rotate_psi:                        0.218     0.218   0.0% |
 Density:                            2.288     0.000   0.0% |
  Atomic density matrices:           0.044     0.044   0.0% |
  Mix:                               0.035     0.035   0.0% |
  Multipole moments:                 0.001     0.001   0.0% |
  Pseudo density:                    2.208     2.127   0.2% |
   Symmetrize density:               0.081     0.081   0.0% |
 Hamiltonian:                        0.854     0.005   0.0% |
  Atomic:                            0.685     0.005   0.0% |
   XC Correction:                    0.681     0.681   0.1% |
  Calculate atomic Hamiltonians:     0.010     0.010   0.0% |
  Communicate:                       0.000     0.000   0.0% |
  Poisson:                           0.002     0.002   0.0% |
  XC 3D grid:                        0.152     0.152   0.0% |
 Orthonormalize:                     0.067     0.006   0.0% |
  calc_s_matrix:                     0.013     0.013   0.0% |
  inverse-cholesky:                  0.021     0.021   0.0% |
  projections:                       0.023     0.023   0.0% |
  rotate_psi_s:                      0.005     0.005   0.0% |
Set symmetry:                        0.144     0.144   0.0% |
Other:                             869.562   869.562  96.8% |--------------------------------------|
-----------------------------------------------------------
Total:                                       897.974 100.0%

Memory usage: 583.72 MiB
Date: Thu Aug 29 11:53:08 2024
