Siesta Version  : 4.1.5
Architecture    : arm64
Compiler version: GNU Fortran (Homebrew GCC 12.2.0) 12.2.0
Compiler flags  : mpif90 -O2 -fPIC -ftree-vectorize -fallow-argument-mismatch
PP flags        : -DCDF -DNCDF -DNCDF_4 -DMPI -DFC_HAVE_ABORT
Libraries       : libncdf.a libfdict.a -L/opt/homebrew/lib -lnetcdff -lnetcdf -lhdf5_hl -lhdf5  -lz -lscalapack -L/opt/homebrew/opt/openblas/lib -lopenblas
PARALLEL version
NetCDF support
NetCDF-4 support

* Running on 8 nodes in parallel
>> Start of run:  12-AUG-2024  13:39:43

                           ***********************       
                           *  WELCOME TO SIESTA  *       
                           ***********************       

reinit: Reading from LDA-U4.0-hs.fdf

reinit: -----------------------------------------------------------------------
reinit: System Name: 
reinit: -----------------------------------------------------------------------
reinit: System Label: LDA-U4.0-hs
reinit: -----------------------------------------------------------------------

initatom: Reading input for the pseudopotentials and atomic orbitals ----------
Species number:   1 Atomic number:    6 Label: C
Species number:   2 Atomic number:    1 Label: H
Species number:   3 Atomic number:   26 Label: Fe

Ground state valence configuration:   2s02  2p02
Reading pseudopotential information in formatted form from C.psf

Valence configuration for pseudopotential generation:
2s( 2.00) rc: 1.56
2p( 2.00) rc: 1.56
3d( 0.00) rc: 1.56
4f( 0.00) rc: 1.56
Ground state valence configuration:   1s01
Reading pseudopotential information in formatted form from H.psf

Valence configuration for pseudopotential generation:
1s( 1.00) rc: 1.33
2p( 0.00) rc: 1.33
3d( 0.00) rc: 0.37
4f( 0.00) rc: 1.33
Ground state valence configuration:   4s02  3d06
Reading pseudopotential information in formatted form from Fe.psf

Pseudopotential generated from an atomic spin-polarized calculation

Valence configuration for pseudopotential generation:
4s(1.00,1.00) rc: 1.78
4p(0.00,0.00) rc: 2.00
3d(5.00,1.00) rc: 1.50
4f(0.00,0.00) rc: 1.78
For C, standard SIESTA heuristics set lmxkb to 3
 (one more than the basis l, including polarization orbitals).
Use PS.lmax or PS.KBprojectors blocks to override.
For H, standard SIESTA heuristics set lmxkb to 2
 (one more than the basis l, including polarization orbitals).
Use PS.lmax or PS.KBprojectors blocks to override.
For Fe, standard SIESTA heuristics set lmxkb to 3
 (one more than the basis l, including polarization orbitals).
Use PS.lmax or PS.KBprojectors blocks to override.
Fe: nkbl increased for l=1 due to the presence of a polarization orbital

<basis_specs>
===============================================================================
C                    Z=   6    Mass=  12.010        Charge= 0.17977+309
Lmxo=1 Lmxkb= 3    BasisType=split      Semic=F
L=0  Nsemic=0  Cnfigmx=2
          i=1  nzeta=2  polorb=0  (2s)
            splnorm:   0.15000    
               vcte:    0.0000    
               rinn:    0.0000    
               qcoe:    0.0000    
               qyuk:    0.0000    
               qwid:   0.10000E-01
                rcs:    0.0000      0.0000    
            lambdas:    1.0000      1.0000    
L=1  Nsemic=0  Cnfigmx=2
          i=1  nzeta=2  polorb=1  (2p)
            splnorm:   0.15000    
               vcte:    0.0000    
               rinn:    0.0000    
               qcoe:    0.0000    
               qyuk:    0.0000    
               qwid:   0.10000E-01
                rcs:    0.0000      0.0000    
            lambdas:    1.0000      1.0000    
-------------------------------------------------------------------------------
L=0  Nkbl=1  erefs: 0.17977+309
L=1  Nkbl=1  erefs: 0.17977+309
L=2  Nkbl=1  erefs: 0.17977+309
L=3  Nkbl=1  erefs: 0.17977+309
===============================================================================
</basis_specs>

atom: Called for C                     (Z =   6)

read_vps: Pseudopotential generation method:
read_vps: ATM 3.2.2 Troullier-Martins                       
Valence charge for ps generation:    4.00000

xc_check: Exchange-correlation functional:
xc_check: Ceperley-Alder
V l=0 = -2*Zval/r beyond r=  1.4851
V l=1 = -2*Zval/r beyond r=  1.5227
V l=2 = -2*Zval/r beyond r=  1.5038
V l=3 = -2*Zval/r beyond r=  1.5038
All V_l potentials equal beyond r=  1.4851
This should be close to max(r_c) in ps generation
All pots = -2*Zval/r beyond r=  1.5227

VLOCAL1: 99.0% of the norm of Vloc inside     19.682 Ry
VLOCAL1: 99.9% of the norm of Vloc inside     44.856 Ry
atom: Maximum radius for 4*pi*r*r*local-pseudopot. charge    1.79142
atom: Maximum radius for r*vlocal+2*Zval:    1.54183
GHOST: No ghost state for L =  0
GHOST: No ghost state for L =  1
GHOST: No ghost state for L =  2
GHOST: No ghost state for L =  3

KBgen: Kleinman-Bylander projectors: 
   l= 0   rc=  1.661951   el= -1.002418   Ekb=  5.300883   kbcos=  0.313864
   l= 1   rc=  1.661951   el= -0.398031   Ekb= -4.214295   kbcos= -0.356030
   l= 2   rc=  1.747182   el=  0.002326   Ekb= -1.050823   kbcos= -0.008844
   l= 3   rc=  1.791422   el=  0.003420   Ekb= -0.424939   kbcos= -0.001141

KBgen: Total number of Kleinman-Bylander projectors:   16
atom: -------------------------------------------------------------------------

atom: SANKEY-TYPE ORBITALS:
atom: Selected multiple-zeta basis: split     

SPLIT: Orbitals with angular momentum L= 0

SPLIT: Basis orbitals for state 2s

SPLIT: PAO cut-off radius determined from an
SPLIT: energy shift=  0.003675 Ry

   izeta = 1
                 lambda =    1.000000
                     rc =    5.120028
                 energy =   -0.999246
                kinetic =    0.826706
    potential(screened) =   -1.825951
       potential(ionic) =   -5.394215

   izeta = 2
                 rmatch =    3.518811
              splitnorm =    0.150000
                 energy =   -0.873308
                kinetic =    1.265330
    potential(screened) =   -2.138639
       potential(ionic) =   -5.965231

SPLIT: Orbitals with angular momentum L= 1

SPLIT: Basis orbitals for state 2p

SPLIT: PAO cut-off radius determined from an
SPLIT: energy shift=  0.003675 Ry

   izeta = 1
                 lambda =    1.000000
                     rc =    6.253707
                 energy =   -0.394569
                kinetic =    2.381153
    potential(screened) =   -2.775722
       potential(ionic) =   -6.202695

   izeta = 2
                 rmatch =    3.745781
              splitnorm =    0.150000
                 energy =   -0.265563
                kinetic =    3.560596
    potential(screened) =   -3.826160
       potential(ionic) =   -7.657696

POLgen: Perturbative polarization orbital with L=  2

POLgen: Polarization orbital for state 2p

   izeta = 1
                     rc =    6.253707
                 energy =    1.011290
                kinetic =    2.135190
    potential(screened) =   -1.123900
       potential(ionic) =   -3.860752
atom: Total number of Sankey-type orbitals: 13

atm_pop: Valence configuration (for local Pseudopot. screening):
 2s( 2.00)                                                            
 2p( 2.00)                                                            
Vna: chval, zval:    4.00000   4.00000

Vna:  Cut-off radius for the neutral-atom potential:   6.253707

atom: _________________________________________________________________________

<basis_specs>
===============================================================================
H                    Z=   1    Mass=  1.0100        Charge= 0.17977+309
Lmxo=0 Lmxkb= 2    BasisType=split      Semic=F
L=0  Nsemic=0  Cnfigmx=1
          i=1  nzeta=2  polorb=1  (1s)
            splnorm:   0.15000    
               vcte:    0.0000    
               rinn:    0.0000    
               qcoe:    0.0000    
               qyuk:    0.0000    
               qwid:   0.10000E-01
                rcs:    0.0000      0.0000    
            lambdas:    1.0000      1.0000    
-------------------------------------------------------------------------------
L=0  Nkbl=1  erefs: 0.17977+309
L=1  Nkbl=1  erefs: 0.17977+309
L=2  Nkbl=1  erefs: 0.17977+309
===============================================================================
</basis_specs>

atom: Called for H                     (Z =   1)

read_vps: Pseudopotential generation method:
read_vps: ATM 3.2.2 Troullier-Martins                       
Valence charge for ps generation:    1.00000

xc_check: Exchange-correlation functional:
xc_check: Ceperley-Alder
V l=0 = -2*Zval/r beyond r=  1.2656
V l=1 = -2*Zval/r beyond r=  1.2498
V l=2 = -2*Zval/r beyond r=  0.3563
All V_l potentials equal beyond r=  1.2656
This should be close to max(r_c) in ps generation
All pots = -2*Zval/r beyond r=  1.2656

VLOCAL1: 99.0% of the norm of Vloc inside     27.100 Ry
VLOCAL1: 99.9% of the norm of Vloc inside     61.762 Ry
atom: Maximum radius for 4*pi*r*r*local-pseudopot. charge    1.48935
atom: Maximum radius for r*vlocal+2*Zval:    1.24984
GHOST: No ghost state for L =  0
GHOST: No ghost state for L =  1
GHOST: No ghost state for L =  2

KBgen: Kleinman-Bylander projectors: 
   l= 0   rc=  1.398961   el= -0.467364   Ekb= -1.985367   kbcos= -0.343724
   l= 1   rc=  1.470814   el=  0.001361   Ekb= -0.479843   kbcos= -0.023156
   l= 2   rc=  1.489346   el=  0.002250   Ekb= -0.476491   kbcos= -0.001599

KBgen: Total number of Kleinman-Bylander projectors:    9
atom: -------------------------------------------------------------------------

atom: SANKEY-TYPE ORBITALS:
atom: Selected multiple-zeta basis: split     

SPLIT: Orbitals with angular momentum L= 0

SPLIT: Basis orbitals for state 1s

SPLIT: PAO cut-off radius determined from an
SPLIT: energy shift=  0.003675 Ry

   izeta = 1
                 lambda =    1.000000
                     rc =    6.047169
                 energy =   -0.463616
                kinetic =    0.852161
    potential(screened) =   -1.315777
       potential(ionic) =   -1.843842

   izeta = 2
                 rmatch =    4.103729
              splitnorm =    0.150000
                 energy =   -0.367899
                kinetic =    1.395006
    potential(screened) =   -1.762905
       potential(ionic) =   -2.330154

POLgen: Perturbative polarization orbital with L=  1

POLgen: Polarization orbital for state 1s

   izeta = 1
                     rc =    6.047169
                 energy =    0.538523
                kinetic =    1.145432
    potential(screened) =   -0.606908
       potential(ionic) =   -1.067781
atom: Total number of Sankey-type orbitals:  5

atm_pop: Valence configuration (for local Pseudopot. screening):
 1s( 1.00)                                                            
Vna: chval, zval:    1.00000   1.00000

Vna:  Cut-off radius for the neutral-atom potential:   6.047169

atom: _________________________________________________________________________

<basis_specs>
===============================================================================
Fe                   Z=  26    Mass=  55.850        Charge= 0.17977+309
Lmxo=2 Lmxkb= 3    BasisType=split      Semic=F
L=0  Nsemic=0  Cnfigmx=4
          i=1  nzeta=2  polorb=1  (4s)
            splnorm:   0.15000    
               vcte:    0.0000    
               rinn:    0.0000    
               qcoe:    0.0000    
               qyuk:    0.0000    
               qwid:   0.10000E-01
                rcs:    0.0000      0.0000    
            lambdas:    1.0000      1.0000    
L=1  Nsemic=0  Cnfigmx=4
L=2  Nsemic=0  Cnfigmx=3
          i=1  nzeta=2  polorb=0  (3d)
            splnorm:   0.15000    
               vcte:    0.0000    
               rinn:    0.0000    
               qcoe:    0.0000    
               qyuk:    0.0000    
               qwid:   0.10000E-01
                rcs:    0.0000      0.0000    
            lambdas:    1.0000      1.0000    
-------------------------------------------------------------------------------
L=0  Nkbl=1  erefs: 0.17977+309
L=1  Nkbl=2  erefs: 0.17977+309 0.17977+309
L=2  Nkbl=1  erefs: 0.17977+309
L=3  Nkbl=1  erefs: 0.17977+309
-------------------------------------------------------------------------------
L=2  n=3
                  U:   0.29399    
                  J:    0.0000    
               rinn:    0.0000    
               vcte:    0.0000    
             lambda:    1.0000    
              width:   0.50000E-01
                 rc:    0.0000    
            dnrm_rc:   0.90000    
===============================================================================
</basis_specs>

atom: Called for Fe                    (Z =  26)

read_vps: Pseudopotential generation method:
read_vps: ATM3.3    Troullier-Martins                       
Valence charge for ps generation:    8.00000

read_vps: Pseudopotential includes a core correction:
read_vps: Pseudo-core for xc-correction

xc_check: Exchange-correlation functional:
xc_check: Ceperley-Alder
V l=0 = -2*Zval/r beyond r=  2.7993
V l=1 = -2*Zval/r beyond r=  2.7993
V l=2 = -2*Zval/r beyond r=  2.7302
V l=3 = -2*Zval/r beyond r=  2.7993
All V_l potentials equal beyond r=  2.6297
This should be close to max(r_c) in ps generation
All pots = -2*Zval/r beyond r=  2.7993

VLOCAL1: 99.0% of the norm of Vloc inside      6.277 Ry
VLOCAL1: 99.9% of the norm of Vloc inside     14.306 Ry
atom: Maximum radius for 4*pi*r*r*local-pseudopot. charge    3.17204
atom: Maximum radius for r*vlocal+2*Zval:    2.79930
GHOST: No ghost state for L =  0
KBgen: More than one KB projector for l=  1
KBgen: ghost states analysis will be not performed
GHOST: No ghost state for L =  2
GHOST: No ghost state for L =  3

KBgen: Kleinman-Bylander projectors: 
   l= 0   rc=  3.055283   el= -0.394661   Ekb=  3.967241   kbcos=  0.232204
   l= 1   rc=  3.132630   el= -0.107583   Ekb=  3.448967   kbcos=  0.146354
   l= 1   rc=  3.376620   el=  0.001455   Ekb=-10.280016   kbcos= -0.001849
   l= 2   rc=  2.696267   el= -0.563397   Ekb=-21.095555   kbcos= -0.661526
   l= 3   rc=  3.334674   el=  0.003534   Ekb= -2.102999   kbcos= -0.009756

KBgen: Total number of Kleinman-Bylander projectors:   19
atom: -------------------------------------------------------------------------

atom: SANKEY-TYPE ORBITALS:
atom: Selected multiple-zeta basis: split     

SPLIT: Orbitals with angular momentum L= 0

SPLIT: Basis orbitals for state 4s

SPLIT: PAO cut-off radius determined from an
SPLIT: energy shift=  0.003675 Ry

   izeta = 1
                 lambda =    1.000000
                     rc =    7.900226
                 energy =   -0.391368
                kinetic =    0.292796
    potential(screened) =   -0.684164
       potential(ionic) =   -5.900343

   izeta = 2
                 rmatch =    6.308440
              splitnorm =    0.150000
                 energy =   -0.342246
                kinetic =    0.468718
    potential(screened) =   -0.810964
       potential(ionic) =   -6.457959

SPLIT: Orbitals with angular momentum L= 2

SPLIT: Basis orbitals for state 3d

SPLIT: PAO cut-off radius determined from an
SPLIT: energy shift=  0.003675 Ry

   izeta = 1
                 lambda =    1.000000
                     rc =    4.791692
                 energy =   -0.560193
                kinetic =   11.241163
    potential(screened) =  -11.801356
       potential(ionic) =  -20.996245

   izeta = 2
                 rmatch =    2.235267
              splitnorm =    0.150000
                 energy =   -0.249169
                kinetic =   15.287087
    potential(screened) =  -15.536256
       potential(ionic) =  -25.518366

POLgen: Perturbative polarization orbital with L=  1

POLgen: Polarization orbital for state 4s

   izeta = 1
                     rc =    7.900226
                 energy =   -0.084017
                kinetic =    0.547972
    potential(screened) =   -0.631989
       potential(ionic) =   -5.376168
atom: Total number of Sankey-type orbitals: 15

atm_pop: Valence configuration (for local Pseudopot. screening):
 4s( 2.00)                                                            
 4p( 0.00)                                                            
 3d( 6.00)                                                            
Vna: chval, zval:    8.00000   8.00000

Vna:  Cut-off radius for the neutral-atom potential:   7.900226
comcore: Pseudo-core radius Rcore=  3.778693

atom: _________________________________________________________________________

DFTUprojs with principal quantum number n =  3
DFTUprojs with angular momentum l =  2
DFTUprojs with U        =      0.29399
DFTUprojs with J        =      0.00000
DFTUprojs with lambda   =      1.00000
DFTUprojs with rc       =      0.00000
DFTUprojs with nnodes   =     1
DFTUprojs with nprin    =     3
DFTUprojs with nrval    =  1123
DFTUprojs with nrwf     =  1069
DFTUprojs with nrmax    = 20000
DFTUprojs with zval     =      8.00000
DFTUprojs with a        =      0.01250
DFTUprojs with b        =      0.00010
dftu_proj_gen: updating the rc to     18.951790859300 Bohr

prinput: Basis input ----------------------------------------------------------

PAO.BasisType split     

%block ChemicalSpeciesLabel
    1    6 C                       # Species index, atomic number, species label
    2    1 H                       # Species index, atomic number, species label
    3   26 Fe                      # Species index, atomic number, species label
%endblock ChemicalSpeciesLabel

%block PAO.Basis                 # Define Basis set
C                     2                    # Species label, number of l-shells
 n=2   0   2                         # n, l, Nzeta 
   5.120      3.519   
   1.000      1.000   
 n=2   1   2 P   1                   # n, l, Nzeta, Polarization, NzetaPol
   6.254      3.746   
   1.000      1.000   
H                     1                    # Species label, number of l-shells
 n=1   0   2 P   1                   # n, l, Nzeta, Polarization, NzetaPol
   6.047      4.104   
   1.000      1.000   
Fe                    2                    # Species label, number of l-shells
 n=4   0   2 P   1                   # n, l, Nzeta, Polarization, NzetaPol
   7.900      6.308   
   1.000      1.000   
 n=3   2   2                         # n, l, Nzeta 
   4.792      2.235   
   1.000      1.000   
%endblock PAO.Basis

prinput: ----------------------------------------------------------------------

Dumping basis to NetCDF file C.ion.nc
Dumping basis to NetCDF file H.ion.nc
Dumping basis to NetCDF file Fe.ion.nc
coor:   Atomic-coordinates input format  =     Cartesian coordinates
coor:                                          (in Angstroms)

siesta: Atomic coordinates (Bohr) and species
siesta:      3.66760   6.93600  23.75798  1        1
siesta:      6.00104   9.80880  16.34127  1        2
siesta:      3.01703   9.56163  23.70485  1        3
siesta:      5.30157  10.97870  23.56341  1        4
siesta:      6.66295   7.18783  16.38030  1        5
siesta:      4.38326   5.75665  16.42832  1        6
siesta:      3.30180   9.97621  16.38077  1        7
siesta:      2.31676   7.46991  16.42912  1        8
siesta:      6.36379   6.75564  23.63103  1        9
siesta:      7.35789   9.25477  23.51787  1       10
siesta:      2.33325   5.33903  23.94814  2       11
siesta:      7.33460  11.41402  16.23134  2       12
siesta:      1.08313  10.35011  23.79894  2       13
siesta:      5.44544  13.06217  23.45205  2       14
siesta:      8.60303   6.41054  16.34986  2       15
siesta:      4.24791   3.67075  16.50241  2       16
siesta:      2.17948  11.73922  16.33866  2       17
siesta:      0.29172   6.95037  16.49699  2       18
siesta:      7.47831   4.98705  23.65324  2       19
siesta:      9.38083   9.76212  23.36319  2       20
siesta:      4.76466   8.34212  20.02150  3       21

siesta: System type = slab      

initatomlists: Number of atoms, orbitals, and projectors:     21   195   269

coxmol: Writing XMOL coordinates into file LDA-U4.0-hs.xyz                                                     

siesta: ******************** Simulation parameters ****************************
siesta:
siesta: The following are some of the parameters of the simulation.
siesta: A complete list of the parameters used, including default values,
siesta: can be found in file out.fdf
siesta:
redata: Spin configuration                          = collinear
redata: Number of spin components                   = 2
redata: Time-Reversal Symmetry                      = T
redata: Spin spiral                                 = F
redata: Long output                                 =   F
redata: Number of Atomic Species                    =        3
redata: Charge density info will appear in .RHO file
redata: Write Mulliken Pop.                         = Atomic and Orbital charges
redata: Matel table size (NRTAB)                    =     1024
redata: Mesh Cutoff                                 =   200.0000 Ry
redata: Net charge of the system                    =     0.0000 |e|
redata: Min. number of SCF Iter                     =        0
redata: Max. number of SCF Iter                     =     2000
redata: SCF convergence failure will abort job
redata: SCF mix quantity                            = Hamiltonian
redata: Mix DM or H after convergence               =   F
redata: Recompute H after scf cycle                 =   F
redata: Mix DM in first SCF step                    =   T
redata: Write Pulay info on disk                    =   F
redata: New DM Occupancy tolerance                  = 0.000000000001
redata: No kicks to SCF
redata: DM Mixing Weight for Kicks                  =     0.5000
redata: Require Harris convergence for SCF          =   F
redata: Harris energy tolerance for SCF             =     0.000100 eV
redata: Require DM convergence for SCF              =   T
redata: DM tolerance for SCF                        =     0.000005
redata: Require EDM convergence for SCF             =   F
redata: EDM tolerance for SCF                       =     0.001000 eV
redata: Require H convergence for SCF               =   T
redata: Hamiltonian tolerance for SCF               =     0.001000 eV
redata: Require (free) Energy convergence for SCF   =   F
redata: (free) Energy tolerance for SCF             =     0.000100 eV
redata: Antiferro initial spin density              =   F
redata: Using Saved Data (generic)                  =   F
redata: Use continuation files for DM               =   T
redata: Neglect nonoverlap interactions             =   F
redata: Method of Calculation                       = Diagonalization
redata: Electronic Temperature                      =   999.9927 K
redata: Fix the spin of the system                  =   T
redata: Total spin of the system (spin value)       =     4.0000
redata: Dynamics option                             = Single-point calculation
mix.SCF: Pulay mixing                            = Pulay
mix.SCF:    Variant                              = stable
mix.SCF:    History steps                        = 5
mix.SCF:    Linear mixing weight                 =     0.030000
mix.SCF:    Mixing weight                        =     0.030000
mix.SCF:    SVD condition                        = 0.1000E-07
mix.SCF: Spin-component mixing                   all
redata: Save all siesta data in one NC              =   F
redata: ***********************************************************************

%block SCF.Mixers
  Pulay
%endblock SCF.Mixers

%block SCF.Mixer.Pulay
  # Mixing method
  method pulay
  variant stable

  # Mixing options
  weight 0.0300
  weight.linear 0.0300
  history 5
%endblock SCF.Mixer.Pulay

DM_history_depth set to one: no extrapolation allowed by default for geometry relaxation
Size of DM history Fstack: 1
Total number of electrons:    58.000000
Total ionic charge:    58.000000
Total number of UP electrons:    31.000000
Total number of DOWN electrons:    27.000000

* ProcessorY, Blocksize:    2  24


* Orbital distribution balance (max,min):    27    24

 Kpoints in:            1 . Kpoints trimmed:            1

siesta: k-grid: Number of k-points =     1
siesta: k-grid: Cutoff (effective) =     5.112 Ang
siesta: k-grid: Supercell and displacements
siesta: k-grid:    1   0   0      0.000
siesta: k-grid:    0   1   0      0.000
siesta: k-grid:    0   0   1      0.000

diag: Algorithm                                     = D&C
diag: Parallel over k                               =   F
diag: Use parallel 2D distribution                  =   T
diag: Parallel block-size                           = 24
diag: Parallel distribution                         =     2 x     4
diag: Used triangular part                          = Lower
diag: Absolute tolerance                            =  0.100E-15
diag: Orthogonalization factor                      =  0.100E-05
diag: Memory factor                                 =  1.0000


ts: **************************************************************
ts: Save H and S matrices                           =    F
ts: Save DM and EDM matrices                        =    F
ts: Only save the overlap matrix S                  =    F
ts: **************************************************************

************************ Begin: TS CHECKS AND WARNINGS ************************
************************ End: TS CHECKS AND WARNINGS **************************


                     ====================================
                        Single-point calculation
                     ====================================

outcell: Unit cell vectors (Ang):
       10.224501    0.000000    0.000000
       -5.112251    8.854673    0.000000
        0.000000    0.000000   21.262054

outcell: Cell vector modules (Ang)   :   10.224501   10.224497   21.262054
outcell: Cell angles (23,13,12) (deg):     90.0000     90.0000    120.0000
outcell: Cell volume (Ang**3)        :   1924.9520
Gamma-point calculation with multiply-connected orbital pairs
Folding of H and S implicitly performed
<dSpData1D:S at geom step 0
  <sparsity:sparsity for geom step 0
    nrows_g=195 nrows=27 sparsity=.1385 nnzs=5265, refcount: 8>
  <dData1D:(new from dSpData1D) n=5265, refcount: 1>
refcount: 1>
new_DM -- step:     1
Initializing Density Matrix...

Attempting to read DM from file... Failed...
DM filled with atomic data (user-defined):
<dSpData2D:DM initialized from atoms
  <sparsity:sparsity for geom step 0
    nrows_g=195 nrows=27 sparsity=.1385 nnzs=5265, refcount: 9>
  <dData2D:DM n=5265 m=2, refcount: 1>
refcount: 1>
     spin moment: S , {S} =    4.00000       0.0       0.0   4.00000
No. of atoms with KB's overlaping orbs in proc 0. Max # of overlaps:      21     195
New grid distribution:   1
           1       1:   40    1:   20    1:   24
           2       1:   40    1:   20   25:   48
           3       1:   40    1:   20   49:   72
           4       1:   40    1:   20   73:   96
           5       1:   40   21:   40    1:   24
           6       1:   40   21:   40   25:   48
           7       1:   40   21:   40   49:   72
           8       1:   40   21:   40   73:   96

InitMesh: MESH =    80 x    80 x   192 =     1228800
InitMesh: (bp) =    40 x    40 x    96 =      153600
InitMesh: Mesh cutoff (required, used) =   200.000   225.369 Ry
ExtMesh (bp) on 0 =   116 x    96 x   100 =     1113600
New grid distribution:   2
           1       1:   40    1:   20    1:   42
           2       1:   40   21:   40   43:   48
           3       1:   40    1:   20   43:   48
           4       1:   40    1:   21   55:   96
           5       1:   40   21:   40    1:   42
           6       1:   40    1:   20   49:   54
           7       1:   40   21:   40   49:   54
           8       1:   40   22:   40   55:   96
New grid distribution:   3
           1       1:   40    1:   20    1:   38
           2       1:   40   21:   40   39:   48
           3       1:   40    1:   20   39:   48
           4       1:   40    1:   20   59:   96
           5       1:   40   21:   40    1:   38
           6       1:   40    1:   20   49:   58
           7       1:   40   21:   40   49:   58
           8       1:   40   21:   40   59:   96
Setting up quadratic distribution...
ExtMesh (bp) on 0 =   116 x    96 x   118 =     1314048
PhiOnMesh: Number of (b)points on node 0 =                33600
PhiOnMesh: nlist on node 0 =               305965
hubbard_term: not computing occupations in the first SCF step

stepf: Methfessel-Paxton step function
       Using Hermite-Gauss polynomials of order  4
hubbard_term: not computing occupations in the first SCF step

siesta: Program's energy decomposition (eV):
siesta: Ebs     =      -499.135323
siesta: Eions   =      3404.890464
siesta: Ena     =       681.145648
siesta: Ekin    =      2262.894292
siesta: Enl     =      -940.415451
siesta: Eso     =         0.000000
siesta: Edftu   =         0.000000
siesta: DEna    =      -150.567983
siesta: DUscf   =        25.947546
siesta: DUext   =         0.000000
siesta: Exc     =      -972.856929
siesta: eta*DQ  =         0.000000
siesta: Emadel  =         0.000000
siesta: Emeta   =         0.000000
siesta: Emolmec =         0.000000
siesta: Ekinion =         0.000000
siesta: Eharris =     -2473.992434
siesta: Etot    =     -2498.743342
siesta: FreeEng =     -2498.740919

        iscf     Eharris(eV)        E_KS(eV)     FreeEng(eV)     dDmax     Ef_up Ef_dn(eV) dHmax(eV)
   scf:    1    -2473.992434    -2498.743342    -2498.740919  0.993674 -4.196019 -6.572042  9.599774
     spin moment: S , {S} =    4.00000       0.0       0.0   4.00000
timer: Routine,Calls,Time,% = IterSCF        1       0.583  13.96
   scf:    2    -2501.789703    -2500.295462    -2500.292784  0.023222 -3.980659 -6.554994  9.016038
     spin moment: S , {S} =    4.00000       0.0       0.0   4.00000
   scf:    3    -2501.478915    -2506.057666    -2506.058152  0.269686 -1.420818 -6.226650 13.473571
     spin moment: S , {S} =    4.00000       0.0       0.0   4.00000
   scf:    4    -2497.294985    -2505.969858    -2505.967818  0.267750 -1.748162 -4.285520  8.385801
     spin moment: S , {S} =    4.00000       0.0       0.0   4.00000
   scf:    5    -2509.271482    -2508.827703    -2508.827893  0.112355 -0.899427 -4.451431  0.876054
     spin moment: S , {S} =    4.00000       0.0       0.0   4.00000
   scf:    6    -2502.714481    -2506.746762    -2506.740983  0.089786 -1.636742 -6.329146  8.962012
     spin moment: S , {S} =    4.00000       0.0       0.0   4.00000
   scf:    7    -2509.841349    -2508.993137    -2508.983119  0.074110 -0.736517 -4.498490  0.896213
     spin moment: S , {S} =    4.00000       0.0       0.0   4.00000
hubbard_term: recalculating local occupations    1
hubbard_term: maximum change in local occup.    0.927259
hubbard_term: recalculating Hamiltonian
   scf:    8    -2506.986894    -2506.997147    -2506.987211  0.003425 -0.754668 -4.544003  2.786887
     spin moment: S , {S} =    4.00000       0.0       0.0   4.00000
   scf:    9    -2507.017963    -2507.014225    -2507.004071  0.011508 -0.727132 -4.423049  1.818926
     spin moment: S , {S} =    4.00000       0.0       0.0   4.00000
hubbard_term: recalculating local occupations    2
hubbard_term: maximum change in local occup.    0.009552
hubbard_term: recalculating Hamiltonian
   scf:   10    -2507.017224    -2507.016726    -2507.006568  0.000681 -0.727320 -4.425701  1.857433
     spin moment: S , {S} =    4.00000       0.0       0.0   4.00000
   scf:   11    -2507.000495    -2507.012106    -2507.002495  0.014694 -0.717007 -4.411948  1.769889
     spin moment: S , {S} =    4.00000       0.0       0.0   4.00000
hubbard_term: recalculating local occupations    3
hubbard_term: maximum change in local occup.    0.016405
hubbard_term: recalculating Hamiltonian
   scf:   12    -2506.989213    -2506.997962    -2506.988778  0.005941 -0.703705 -4.417355  1.859452
     spin moment: S , {S} =    4.00000       0.0       0.0   4.00000
   scf:   13    -2506.737296    -2506.908275    -2506.907315  0.059432 -0.699137 -4.509135  2.371992
     spin moment: S , {S} =    4.00000       0.0       0.0   4.00000
   scf:   14    -2506.983262    -2506.933750    -2506.931765  0.018505 -0.708448 -4.208779  1.992286
     spin moment: S , {S} =    4.00000       0.0       0.0   4.00000
   scf:   15    -2507.042366    -2506.940840    -2506.933963  0.051467 -0.236373 -3.171443  0.565149
     spin moment: S , {S} =    4.00000       0.0       0.0   4.00000
   scf:   16    -2506.906741    -2506.926908    -2506.922094  0.039636 -0.231179 -3.543250  0.376659
     spin moment: S , {S} =    4.00000       0.0       0.0   4.00000
   scf:   17    -2506.924940    -2506.919708    -2506.915130  0.015983 -0.245932 -3.420695  0.252196
     spin moment: S , {S} =    4.00000       0.0       0.0   4.00000
   scf:   18    -2506.925302    -2506.922266    -2506.917505  0.015950 -0.257324 -3.424457  0.310970
     spin moment: S , {S} =    4.00000       0.0       0.0   4.00000
hubbard_term: recalculating local occupations    4
hubbard_term: maximum change in local occup.    0.057554
hubbard_term: recalculating Hamiltonian
   scf:   19    -2507.028009    -2507.024677    -2507.019904  0.004472 -0.258692 -3.419982  0.373084
     spin moment: S , {S} =    4.00000       0.0       0.0   4.00000
hubbard_term: recalculating local occupations    5
hubbard_term: maximum change in local occup.    0.000832
   scf:   20    -2507.024965    -2507.024313    -2507.019520  0.001125 -0.259417 -3.404282  0.347723
     spin moment: S , {S} =    4.00000       0.0       0.0   4.00000
hubbard_term: recalculating local occupations    6
hubbard_term: maximum change in local occup.    0.002750
hubbard_term: recalculating Hamiltonian
   scf:   21    -2507.029459    -2507.027442    -2507.022584  0.002830 -0.258310 -3.420896  0.265359
     spin moment: S , {S} =    4.00000       0.0       0.0   4.00000
hubbard_term: recalculating local occupations    7
hubbard_term: maximum change in local occup.    0.000404
   scf:   22    -2507.029146    -2507.028954    -2507.024094  0.000528 -0.257168 -3.437084  0.258625
     spin moment: S , {S} =    4.00000       0.0       0.0   4.00000
hubbard_term: recalculating local occupations    8
hubbard_term: maximum change in local occup.    0.003359
hubbard_term: recalculating Hamiltonian
   scf:   23    -2507.035126    -2507.031695    -2507.026823  0.005433 -0.258882 -3.544633  0.228772
     spin moment: S , {S} =    4.00000       0.0       0.0   4.00000
hubbard_term: recalculating local occupations    9
hubbard_term: maximum change in local occup.    0.002775
hubbard_term: recalculating Hamiltonian
   scf:   24    -2507.033752    -2507.032722    -2507.027816  0.003238 -0.261537 -3.521729  0.150845
     spin moment: S , {S} =    4.00000       0.0       0.0   4.00000
hubbard_term: recalculating local occupations   10
hubbard_term: maximum change in local occup.    0.001223
hubbard_term: recalculating Hamiltonian
   scf:   25    -2507.033355    -2507.033042    -2507.028132  0.001393 -0.263056 -3.515075  0.112243
     spin moment: S , {S} =    4.00000       0.0       0.0   4.00000
hubbard_term: recalculating local occupations   11
hubbard_term: maximum change in local occup.    0.001173
hubbard_term: recalculating Hamiltonian
   scf:   26    -2507.033641    -2507.033353    -2507.028435  0.001450 -0.265242 -3.487459  0.113411
     spin moment: S , {S} =    4.00000       0.0       0.0   4.00000
hubbard_term: recalculating local occupations   12
hubbard_term: maximum change in local occup.    0.000477
   scf:   27    -2507.034274    -2507.034155    -2507.029235  0.000728 -0.265149 -3.522287  0.080903
     spin moment: S , {S} =    4.00000       0.0       0.0   4.00000
hubbard_term: recalculating local occupations   13
hubbard_term: maximum change in local occup.    0.001638
hubbard_term: recalculating Hamiltonian
   scf:   28    -2507.033753    -2507.033622    -2507.028736  0.001353 -0.265359 -3.572418  0.046372
     spin moment: S , {S} =    4.00000       0.0       0.0   4.00000
hubbard_term: recalculating local occupations   14
hubbard_term: maximum change in local occup.    0.000398
   scf:   29    -2507.033605    -2507.033553    -2507.028686  0.000502 -0.265715 -3.570931  0.055581
     spin moment: S , {S} =    4.00000       0.0       0.0   4.00000
hubbard_term: recalculating local occupations   15
hubbard_term: maximum change in local occup.    0.000416
   scf:   30    -2507.034183    -2507.034191    -2507.029310  0.000729 -0.264989 -3.577657  0.054575
     spin moment: S , {S} =    4.00000       0.0       0.0   4.00000
hubbard_term: recalculating local occupations   16
hubbard_term: maximum change in local occup.    0.000315
   scf:   31    -2507.034107    -2507.034096    -2507.029227  0.000246 -0.265191 -3.585855  0.053261
     spin moment: S , {S} =    4.00000       0.0       0.0   4.00000
hubbard_term: recalculating local occupations   17
hubbard_term: maximum change in local occup.    0.000470
   scf:   32    -2507.033577    -2507.033567    -2507.028763  0.001199 -0.266315 -3.593959  0.037083
     spin moment: S , {S} =    4.00000       0.0       0.0   4.00000
hubbard_term: recalculating local occupations   18
hubbard_term: maximum change in local occup.    0.000764
   scf:   33    -2507.033206    -2507.033218    -2507.028441  0.000374 -0.266765 -3.594149  0.031514
     spin moment: S , {S} =    4.00000       0.0       0.0   4.00000
hubbard_term: recalculating local occupations   19
hubbard_term: maximum change in local occup.    0.001071
hubbard_term: recalculating Hamiltonian
   scf:   34    -2507.033602    -2507.033651    -2507.028948  0.000953 -0.267333 -3.600936  0.010909
     spin moment: S , {S} =    4.00000       0.0       0.0   4.00000
hubbard_term: recalculating local occupations   20
hubbard_term: maximum change in local occup.    0.000265
   scf:   35    -2507.033344    -2507.033374    -2507.028704  0.000375 -0.267557 -3.601083  0.007042
     spin moment: S , {S} =    4.00000       0.0       0.0   4.00000
hubbard_term: recalculating local occupations   21
hubbard_term: maximum change in local occup.    0.000257
   scf:   36    -2507.033363    -2507.033365    -2507.028698  0.000043 -0.267510 -3.600941  0.006734
     spin moment: S , {S} =    4.00000       0.0       0.0   4.00000
hubbard_term: recalculating local occupations   22
hubbard_term: maximum change in local occup.    0.000379
   scf:   37    -2507.033263    -2507.033298    -2507.028669  0.000463 -0.267240 -3.608050  0.010817
     spin moment: S , {S} =    4.00000       0.0       0.0   4.00000
hubbard_term: recalculating local occupations   23
hubbard_term: maximum change in local occup.    0.000459
   scf:   38    -2507.033188    -2507.033199    -2507.028580  0.000125 -0.267287 -3.607983  0.010217
     spin moment: S , {S} =    4.00000       0.0       0.0   4.00000
hubbard_term: recalculating local occupations   24
hubbard_term: maximum change in local occup.    0.000456
   scf:   39    -2507.033180    -2507.033178    -2507.028557  0.000024 -0.267269 -3.607944  0.009657
     spin moment: S , {S} =    4.00000       0.0       0.0   4.00000
hubbard_term: recalculating local occupations   25
hubbard_term: maximum change in local occup.    0.000332
   scf:   40    -2507.033430    -2507.033391    -2507.028731  0.000442 -0.266890 -3.600077  0.004753
     spin moment: S , {S} =    4.00000       0.0       0.0   4.00000
hubbard_term: recalculating local occupations   26
hubbard_term: maximum change in local occup.    0.000330
   scf:   41    -2507.033404    -2507.033400    -2507.028736  0.000045 -0.266837 -3.600066  0.004184
     spin moment: S , {S} =    4.00000       0.0       0.0   4.00000
hubbard_term: recalculating local occupations   27
hubbard_term: maximum change in local occup.    0.000405
   scf:   42    -2507.033279    -2507.033265    -2507.028586  0.000187 -0.266530 -3.599838  0.002176
     spin moment: S , {S} =    4.00000       0.0       0.0   4.00000
hubbard_term: recalculating local occupations   28
hubbard_term: maximum change in local occup.    0.000407
   scf:   43    -2507.033264    -2507.033263    -2507.028584  0.000008 -0.266520 -3.599840  0.002177
     spin moment: S , {S} =    4.00000       0.0       0.0   4.00000
hubbard_term: recalculating local occupations   29
hubbard_term: maximum change in local occup.    0.000420
   scf:   44    -2507.033243    -2507.033227    -2507.028532  0.000186 -0.266308 -3.599819  0.001645
     spin moment: S , {S} =    4.00000       0.0       0.0   4.00000
hubbard_term: recalculating local occupations   30
hubbard_term: maximum change in local occup.    0.000411
   scf:   45    -2507.033230    -2507.033225    -2507.028525  0.000056 -0.266257 -3.599806  0.001370
     spin moment: S , {S} =    4.00000       0.0       0.0   4.00000
hubbard_term: recalculating local occupations   31
hubbard_term: maximum change in local occup.    0.000381
   scf:   46    -2507.033283    -2507.033270    -2507.028557  0.000156 -0.266129 -3.599800  0.000665
     spin moment: S , {S} =    4.00000       0.0       0.0   4.00000
hubbard_term: recalculating local occupations   32
hubbard_term: maximum change in local occup.    0.000381
   scf:   47    -2507.033268    -2507.033267    -2507.028554  0.000006 -0.266123 -3.599793  0.000633
     spin moment: S , {S} =    4.00000       0.0       0.0   4.00000
hubbard_term: recalculating local occupations   33
hubbard_term: maximum change in local occup.    0.000391
   scf:   48    -2507.033237    -2507.033238    -2507.028525  0.000033 -0.266129 -3.599736  0.000707
     spin moment: S , {S} =    4.00000       0.0       0.0   4.00000
hubbard_term: recalculating local occupations   34
hubbard_term: maximum change in local occup.    0.000382
   scf:   49    -2507.033241    -2507.033244    -2507.028535  0.000037 -0.266179 -3.599717  0.000671
     spin moment: S , {S} =    4.00000       0.0       0.0   4.00000
hubbard_term: recalculating local occupations   35
hubbard_term: maximum change in local occup.    0.000381
   scf:   50    -2507.033247    -2507.033250    -2507.028544  0.000033 -0.266214 -3.599712  0.000668
     spin moment: S , {S} =    4.00000       0.0       0.0   4.00000
hubbard_term: recalculating local occupations   36
hubbard_term: maximum change in local occup.    0.000384
   scf:   51    -2507.033247    -2507.033250    -2507.028545  0.000024 -0.266232 -3.599706  0.000809
     spin moment: S , {S} =    4.00000       0.0       0.0   4.00000
hubbard_term: recalculating local occupations   37
hubbard_term: maximum change in local occup.    0.000381
   scf:   52    -2507.033240    -2507.033240    -2507.028535  0.000011 -0.266215 -3.599681  0.000904
     spin moment: S , {S} =    4.00000       0.0       0.0   4.00000
hubbard_term: recalculating local occupations   38
hubbard_term: maximum change in local occup.    0.000380
   scf:   53    -2507.033241    -2507.033241    -2507.028536  0.000002 -0.266212 -3.599679  0.000885
     spin moment: S , {S} =    4.00000       0.0       0.0   4.00000

SCF Convergence by DM+H criterion
max |DM_out - DM_in|         :     0.0000019380
max |H_out - H_in|      (eV) :     0.0008851989
LDA+U population converged by dTol_pop criteria:
max |pop(LDA+U)_i - pop(LDA+U)_j|:     0.0003796812
SCF cycle converged after 53 iterations

Using DM_out to compute the final energy and forces
No. of atoms with KB's overlaping orbs in proc 0. Max # of overlaps:      21     195
hubbard_term: recalculating local occupations   39
hubbard_term: maximum change in local occup.    0.000380
hubbard_term: recalculating Hamiltonian and forces

siesta: E_KS(eV) =            -2507.0337

siesta: E_KS - E_eggbox =     -2507.0337
     spin moment: S , {S} =    4.00000       0.0       0.0   4.00000

siesta: Atomic forces (eV/Ang):
----------------------------------------
   Tot    0.375636    0.142257    0.153863
----------------------------------------
   Max    0.396053
   Res    0.072412    sqrt( Sum f_i^2 / 3N )
----------------------------------------
   Max    0.396053    constrained

Stress tensor Voigt[x,y,z,yz,xz,xy] (kbar):       -0.08       -0.12       -0.17       -0.02       -0.02        0.03
(Free)E + p*V (eV/cell)    -2506.8840
Target enthalpy (eV/cell)    -2507.0290

mulliken: Atomic and Orbital Populations:

mulliken: Spin UP 

Species: C                   
Atom  Qatom  Qorb
               2s      2s      2py     2pz     2px     2py     2pz     2px     
               3Pdxy   3Pdyz   3Pdz2   3Pdxz   3Pdx2-y2
   1  1.933   0.089   0.348   0.137   0.371   0.179   0.314   0.133   0.281
              0.025   0.015   0.006   0.018   0.016
   2  1.933   0.087   0.349   0.135   0.374   0.178   0.316   0.132   0.282
              0.025   0.015   0.006   0.018   0.016
   3  1.935   0.094   0.345   0.240   0.379   0.067   0.233   0.127   0.369
              0.020   0.023   0.006   0.010   0.021
   4  1.937   0.102   0.340   0.024   0.383   0.270   0.399   0.125   0.212
              0.016   0.007   0.005   0.026   0.025
   5  1.934   0.094   0.346   0.241   0.380   0.064   0.233   0.127   0.370
              0.020   0.023   0.006   0.010   0.021
   6  1.936   0.103   0.340   0.024   0.382   0.270   0.400   0.125   0.212
              0.016   0.007   0.005   0.026   0.025
   7  1.934   0.093   0.346   0.101   0.379   0.205   0.342   0.127   0.260
              0.024   0.013   0.006   0.020   0.018
   8  1.937   0.103   0.340   0.256   0.382   0.039   0.223   0.125   0.389
              0.018   0.025   0.005   0.008   0.023
   9  1.935   0.093   0.346   0.100   0.380   0.206   0.343   0.127   0.259
              0.023   0.013   0.006   0.020   0.018
  10  1.937   0.102   0.341   0.256   0.382   0.038   0.222   0.126   0.389
              0.018   0.025   0.005   0.009   0.023

Species: H                   
Atom  Qatom  Qorb
               1s      1s      2Ppy    2Ppz    2Ppx    
  11  0.609   0.385   0.167   0.017   0.024   0.015
  12  0.609   0.385   0.167   0.017   0.024   0.015
  13  0.609   0.388   0.165   0.012   0.023   0.021
  14  0.609   0.393   0.162   0.023   0.022   0.010
  15  0.609   0.389   0.165   0.012   0.023   0.021
  16  0.609   0.392   0.162   0.023   0.022   0.010
  17  0.609   0.388   0.165   0.019   0.023   0.014
  18  0.609   0.392   0.162   0.011   0.022   0.022
  19  0.609   0.388   0.165   0.019   0.023   0.014
  20  0.609   0.393   0.162   0.011   0.022   0.022

Species: Fe                  
Atom  Qatom  Qorb
               4s      4s      3dxy    3dyz    3dz2    3dxz    3dx2-y2 3dxy    
               3dyz    3dz2    3dxz    3dx2-y2 4Ppy    4Ppz    4Ppx    
  21  5.556   0.111   0.188   0.971   0.985   0.957   0.985   0.962  -0.002
              0.021   0.025   0.021   0.018   0.105   0.106   0.105

mulliken: Qtot =       31.000

mulliken: Spin DOWN 

Species: C                   
Atom  Qatom  Qorb
               2s      2s      2py     2pz     2px     2py     2pz     2px     
               3Pdxy   3Pdyz   3Pdz2   3Pdxz   3Pdx2-y2
   1  1.902   0.087   0.349   0.136   0.340   0.179   0.312   0.140   0.279
              0.025   0.014   0.007   0.017   0.016
   2  1.898   0.086   0.350   0.134   0.341   0.177   0.314   0.137   0.280
              0.025   0.014   0.006   0.017   0.017
   3  1.897   0.094   0.345   0.239   0.350   0.066   0.232   0.126   0.368
              0.021   0.021   0.006   0.009   0.021
   4  1.884   0.103   0.338   0.023   0.347   0.269   0.398   0.115   0.212
              0.016   0.008   0.005   0.023   0.025
   5  1.895   0.093   0.345   0.240   0.351   0.063   0.232   0.125   0.370
              0.020   0.021   0.006   0.010   0.021
   6  1.886   0.104   0.338   0.023   0.349   0.269   0.399   0.115   0.212
              0.016   0.008   0.005   0.024   0.025
   7  1.897   0.093   0.345   0.100   0.352   0.204   0.341   0.126   0.259
              0.024   0.012   0.006   0.019   0.018
   8  1.887   0.103   0.338   0.255   0.349   0.038   0.222   0.115   0.388
              0.018   0.023   0.005   0.009   0.023
   9  1.895   0.092   0.346   0.099   0.350   0.204   0.342   0.126   0.258
              0.023   0.012   0.006   0.019   0.018
  10  1.884   0.102   0.339   0.256   0.348   0.036   0.222   0.116   0.388
              0.018   0.022   0.005   0.009   0.023

Species: H                   
Atom  Qatom  Qorb
               1s      1s      2Ppy    2Ppz    2Ppx    
  11  0.608   0.385   0.168   0.017   0.023   0.015
  12  0.608   0.385   0.168   0.017   0.023   0.015
  13  0.609   0.389   0.165   0.012   0.022   0.021
  14  0.610   0.394   0.162   0.023   0.020   0.010
  15  0.609   0.389   0.165   0.012   0.022   0.021
  16  0.609   0.394   0.163   0.023   0.020   0.010
  17  0.609   0.389   0.165   0.019   0.022   0.014
  18  0.609   0.394   0.163   0.011   0.020   0.022
  19  0.609   0.389   0.165   0.019   0.022   0.014
  20  0.610   0.394   0.162   0.011   0.020   0.022

Species: Fe                  
Atom  Qatom  Qorb
               4s      4s      3dxy    3dyz    3dz2    3dxz    3dx2-y2 3dxy    
               3dyz    3dz2    3dxz    3dx2-y2 4Ppy    4Ppz    4Ppx    
  21  1.984   0.059   0.188   0.925   0.286   0.056   0.283   0.037  -0.058
             -0.032  -0.009  -0.032  -0.003   0.092   0.100   0.092

mulliken: Qtot =       27.000

coxmol: Writing XMOL coordinates into file LDA-U4.0-hs.xyz                                                     

siesta: Program's energy decomposition (eV):
siesta: Ebs     =      -682.411555
siesta: Eions   =      3404.890464
siesta: Ena     =       681.145648
siesta: Ekin    =      2189.760232
siesta: Enl     =      -954.090151
siesta: Eso     =         0.000000
siesta: Edftu   =         1.777962
siesta: DEna    =       -74.213363
siesta: DUscf   =         8.760571
siesta: DUext   =         0.000000
siesta: Exc     =      -955.284095
siesta: eta*DQ  =         0.000000
siesta: Emadel  =         0.000000
siesta: Emeta   =         0.000000
siesta: Emolmec =         0.000000
siesta: Ekinion =         0.000000
siesta: Eharris =     -2507.033241
siesta: Etot    =     -2507.033661
siesta: FreeEng =     -2507.028955

siesta: Final energy (eV):
siesta:  Band Struct. =    -682.411555
siesta:       Kinetic =    2189.760232
siesta:       Hartree =    6346.239643
siesta:       Edftu   =       1.777962
siesta:       Eso     =       0.000000
siesta:    Ext. field =       0.000000
siesta:   Exch.-corr. =    -955.284095
siesta:  Ion-electron =  -14625.611733
siesta:       Ion-ion =    4536.084330
siesta:       Ekinion =       0.000000
siesta:         Total =   -2507.033661
siesta:      Fermi_up =      -0.266212
siesta:      Fermi_dn =      -3.599679

siesta: Atomic forces (eV/Ang):
siesta:      1   -0.092018   -0.104814    0.013249
siesta:      2    0.087978    0.099321   -0.013477
siesta:      3   -0.013853    0.117255    0.015758
siesta:      4    0.046223   -0.063708    0.019165
siesta:      5   -0.000124   -0.121904   -0.014353
siesta:      6   -0.048828    0.071482   -0.021145
siesta:      7   -0.124086   -0.007226   -0.017471
siesta:      8    0.076116   -0.040666   -0.019591
siesta:      9    0.118225    0.000483    0.015278
siesta:     10   -0.072815    0.035289    0.019246
siesta:     11    0.003973    0.005715   -0.004231
siesta:     12   -0.008430   -0.005601    0.001745
siesta:     13    0.010327    0.002661   -0.006468
siesta:     14    0.003391   -0.003686   -0.003739
siesta:     15   -0.005046   -0.005129    0.004458
siesta:     16   -0.005421    0.006890    0.005401
siesta:     17   -0.007460   -0.006555    0.006329
siesta:     18    0.010430   -0.004430    0.008542
siesta:     19    0.004851    0.009228   -0.005278
siesta:     20   -0.003851    0.005307   -0.002246
siesta:     21    0.396053    0.152344    0.152692
siesta: ----------------------------------------
siesta:    Tot    0.375636    0.142257    0.153863

siesta: Stress tensor (static) (eV/Ang**3):
siesta:    -0.000047    0.000016   -0.000012
siesta:     0.000016   -0.000075   -0.000016
siesta:    -0.000011   -0.000015   -0.000104

siesta: Cell volume =       1924.951963 Ang**3

siesta: Pressure (static):
siesta:                Solid            Molecule  Units
siesta:           0.00000082          0.00000009  Ry/Bohr**3
siesta:           0.00007533          0.00000815  eV/Ang**3
siesta:           0.12068837          0.01305992  kBar
(Free)E+ p_basis*V_orbitals  =       -2496.439234
(Free)Eharris+ p_basis*V_orbitals  =       -2496.438815
     spin moment: S , {S} =    4.00000       0.0       0.0   4.00000

siesta: Electric dipole (a.u.)  =   -0.000000    0.000000   -0.006190
siesta: Electric dipole (Debye) =   -0.000000    0.000000   -0.015734

cite: Please see "LDA-U4.0-hs.bib" for an exhaustive BiBTeX file.
cite: Please clearly indicate Siesta version in published work: 4.1.5
cite: This calculation has made use of the following articles
cite: which are encouraged to be cited in a published work.
        Primary SIESTA paper
          DOI: www.doi.org/10.1088/0953-8984/14/11/302
        LDA+U implementation
          DOI: www.doi.org/10.1103/PhysRevB.57.1505

>> End of run:  12-AUG-2024  13:40:07
Job completed
