47
Lattice="19.104 0.0 0.0 -9.552 16.544549313897917 0.0 0.0 -0.0 43.127" Properties=species:S:1:pos:R:3:initial_magmoms:R:1:magmoms:R:1:forces:R:3 magmom=4.0 energy=-1.1170654922407095 dipole="-0.07450419940651568 -1.310399998092919 -1.5473382137475036" free_energy=-303.8976596111455 stress="3.71122737828109e-05 -9.09617321558834e-06 7.844855750156158e-06 -9.09617321558834e-06 4.1100412413839186e-05 -4.8102137794262865e-06 7.844855750156158e-06 -4.8102137794262865e-06 3.896986111542295e-05" pbc="T T F"
Fe       4.98222993       8.64781041      22.24620040       4.00000000       3.81120861       0.00407485       0.00594521       0.00573362
N        5.97278150       8.06729865      20.40640646       0.00000000       0.01483146      -0.00521655       0.01235277       0.02076916
N        3.85863052       6.91851246      21.43295289       0.00000000       0.01557164       0.00437487       0.01711125       0.01525737
N        6.22878684       7.18346113      23.36477870       0.00000000       0.02890051      -0.01312369       0.00853388      -0.01722949
N        3.74889494       5.28849402      19.62094940       0.00000000       0.00279644       0.00590279       0.00212835      -0.00372605
C        4.30666456       6.34604640      20.26399828       0.00000000      -0.01296027       0.01105506       0.01070818       0.00113485
C        5.70389359       6.28754447      24.24109780       0.00000000      -0.00329080      -0.01944677       0.00534410      -0.01005618
C        5.49977146       6.99385689      19.68579572       0.00000000      -0.01342094      -0.00968576      -0.00062730       0.01099826
C        2.09854819       5.27474446      21.40495684       0.00000000      -0.00407930       0.00000130       0.01012744       0.01188891
N        6.02979482       6.50990015      18.53880734       0.00000000       0.00313463      -0.00539396      -0.00371432       0.00271744
C        7.10992514       7.15272515      18.06356496       0.00000000      -0.01194252      -0.00106918      -0.00493158      -0.00395024
C        7.06725517       8.69715871      19.89263607       0.00000000      -0.00277925       0.00227528       0.01582498       0.01483503
C        2.65907810       4.76310408      20.20758629       0.00000000      -0.01108299       0.00082617      -0.00408439      -0.00558167
C        2.74766306       6.36714020      21.98909804       0.00000000      -0.00235800      -0.00076439       0.01497113       0.01881169
C        8.44077111       6.34595619      23.91669954       0.00000000       0.00198128      -0.00060142       0.00821604      -0.00894094
C        7.88599789       5.40615631      24.80544707       0.00000000      -0.00520095       0.00142064      -0.00187117       0.00050855
C        6.48974525       5.38414358      24.97466600       0.00000000       0.00188892      -0.01020431       0.00241940      -0.00315549
C        7.57954347       7.20565501      23.22014552       0.00000000      -0.00330390      -0.00384997       0.01271664      -0.01863997
C        7.68121469       8.27533539      18.71160464       0.00000000      -0.00381640      -0.00004727       0.01072972       0.01311993
S        8.04404913      12.15704613      23.39483642       0.00000000       0.02874245      -0.00875972      -0.01576821      -0.01003815
N        6.38453983      10.04254967      22.50004089       0.00000000       0.02318735      -0.02606800      -0.01848066       0.00141297
C        7.08944294      10.95426981      22.89595413       0.00000000       0.01237997      -0.00671183      -0.01193372      -0.00696922
H        1.19888332       4.82784838      21.86504438       0.00000000       0.00034995       0.00216593       0.00273691       0.00085685
H        7.54513507       6.75436670      17.12346792       0.00000000       0.00025945      -0.00092885      -0.00001613       0.00109685
H        7.43204180       9.56208696      20.48461102       0.00000000       0.00075646      -0.01310559      -0.00433455       0.01018645
H        6.00644165       4.68446092      25.68246367       0.00000000       0.00022130      -0.00145770       0.00192549      -0.00180588
H        2.20269897       3.89160730      19.69349465       0.00000000       0.00024337       0.00101270       0.00098269       0.00013594
H        2.40321910       6.85135976      22.92671959       0.00000000       0.00072868       0.01361845       0.01096904      -0.00163366
H        9.53336473       6.42297251      23.76993998       0.00000000       0.00022056      -0.00218540       0.00195158      -0.00166099
H        8.53686303       4.71401972      25.37128188       0.00000000       0.00007261      -0.00029270       0.00025110      -0.00030726
H        7.97024924       7.97865796      22.53026889       0.00000000       0.00058896      -0.01812712       0.00652151      -0.01045390
H        8.57075021       8.79485593      18.30947510       0.00000000       0.00034967      -0.00220622       0.00053074       0.00321615
H        4.60515914       6.33851901      24.37043399       0.00000000       0.00058012      -0.00565860       0.01350143      -0.01669055
S        2.16819761       9.32274764      26.06009851       0.00000000       0.02862459       0.00770008      -0.00797906      -0.01751187
N        3.68698883       8.74812230      23.74065595       0.00000000       0.02262984       0.02355831       0.00147293      -0.02306321
C        3.03487173       9.00654373      24.73673595       0.00000000       0.01286714       0.00571690      -0.00634678      -0.01365169
N        3.69817497      10.03729013      21.04988427       0.00000000       0.02920530       0.01265303      -0.01835218       0.00501348
C        2.34211800       9.97603449      21.10632568       0.00000000      -0.00338092       0.00331412      -0.01997930       0.01001651
C        3.48575382      11.88528279      19.48466238       0.00000000       0.00198056       0.01045483      -0.00395025       0.00119797
C        2.08165540      11.80098266      19.53643297       0.00000000      -0.00537395      -0.00135699       0.00096943      -0.00190888
C        1.50147588      10.82634211      20.37035641       0.00000000       0.00196128      -0.00006481      -0.00931687       0.00611889
C        4.24854660      10.99323931      20.25501435       0.00000000      -0.00342677       0.01921176      -0.01174056       0.00303969
H        0.40367875      10.73268810      20.46935602       0.00000000       0.00022498       0.00198057      -0.00184483       0.00139875
H        3.99243460      12.64442122      18.85951705       0.00000000       0.00022316       0.00149438      -0.00223658       0.00160055
H        1.44728482      12.48757857      18.94315183       0.00000000       0.00007446       0.00024129      -0.00031354       0.00017392
H        5.35519550      11.03866016      20.26862105       0.00000000       0.00059454       0.00483566      -0.01865997       0.01054184
H        1.92904346       9.21585539      21.79736644       0.00000000       0.00059574       0.01843782      -0.01245996       0.00519369
